TITLE = "Cylindrical Flow Velocity Data"
Variables="X","Y","VX","VY","VZ"
Zone I=    17, J=    17, F=POINT
     0.000     0.000    0.00000       0.843745E-05
     0.000
     0.000     0.063    0.00000      -0.340990E-03
     0.000
     0.000     0.125    0.00000      -0.580150E-03
     0.000
     0.000     0.188    0.00000      -0.672798E-03
     0.000
     0.000     0.250    0.00000      -0.605478E-03
     0.000
     0.000     0.313    0.00000      -0.490243E-03
     0.000
     0.000     0.375    0.00000      -0.319251E-03
     0.000
     0.000     0.438    0.00000      -0.168558E-03
     0.000
     0.000     0.500    0.00000       0.207668E-04
     0.000
     0.000     0.563    0.00000       0.177907E-03
     0.000
     0.000     0.625    0.00000       0.341482E-03
     0.000
     0.000     0.688    0.00000       0.463939E-03
     0.000
     0.000     0.750    0.00000       0.684475E-03
     0.000
     0.000     0.813    0.00000       0.838641E-03
     0.000
     0.000     0.875    0.00000       0.596767E-03
     0.000
     0.000     0.938    0.00000       0.252726E-03
     0.000
     0.000     1.000    0.00000       0.653961E-04
     0.000
     0.063     0.000    0.00000        0.00000    
     0.063
     0.063     0.063   0.220454E-03  -0.338923E-03
     0.026
     0.063     0.125   0.100789E-03  -0.580235E-03
     0.011
     0.063     0.188  -0.308704E-05  -0.684332E-03
     0.004
     0.063     0.250  -0.538747E-04  -0.611833E-03
     0.002
     0.063     0.313  -0.755358E-04  -0.484541E-03
     0.001
     0.063     0.375  -0.811674E-04  -0.323321E-03
     0.000
     0.063     0.438  -0.825453E-04  -0.161693E-03
     0.000
     0.063     0.500  -0.824044E-04   0.145531E-04
     0.000
     0.063     0.563  -0.843101E-04   0.180903E-03
     0.000
     0.063     0.625  -0.835679E-04   0.341447E-03
     0.000
     0.063     0.688  -0.679838E-04   0.483854E-03
     0.001
     0.063     0.750  -0.422657E-04   0.675043E-03
     0.002
     0.063     0.813  -0.376224E-04   0.809657E-03
     0.004
     0.063     0.875   0.764187E-05   0.622408E-03
     0.010
     0.063     0.938   0.310710E-03   0.283466E-03
     0.026
     0.063     1.000    0.00000        0.00000    
     0.063
     0.125     0.000    0.00000        0.00000    
     0.125
     0.125     0.063   0.405003E-03  -0.325334E-03
     0.054
     0.125     0.125   0.169223E-03  -0.566165E-03
     0.021
     0.125     0.188  -0.188964E-04  -0.691226E-03
     0.009
     0.125     0.250  -0.114977E-03  -0.617835E-03
     0.004
     0.125     0.313  -0.152891E-03  -0.483003E-03
     0.002
     0.125     0.375  -0.167193E-03  -0.322206E-03
     0.001
     0.125     0.438  -0.170291E-03  -0.160371E-03
     0.000
     0.125     0.500  -0.171746E-03   0.127353E-04
     0.000
     0.125     0.563  -0.170551E-03   0.177337E-03
     0.000
     0.125     0.625  -0.167168E-03   0.337908E-03
     0.001
     0.125     0.688  -0.154085E-03   0.492502E-03
     0.002
     0.125     0.750  -0.116791E-03   0.674168E-03
     0.004
     0.125     0.813  -0.701282E-04   0.779998E-03
     0.008
     0.125     0.875   0.258979E-04   0.603321E-03
     0.021
     0.125     0.938   0.528871E-03   0.318624E-03
     0.054
     0.125     1.000    0.00000        0.00000    
     0.125
     0.188     0.000    0.00000        0.00000    
     0.188
     0.188     0.063   0.660855E-03  -0.322266E-03
     0.082
     0.188     0.125   0.255134E-03  -0.565444E-03
     0.032
     0.188     0.188  -0.347829E-04  -0.696977E-03
     0.013
     0.188     0.250  -0.171530E-03  -0.620311E-03
     0.005
     0.188     0.313  -0.225404E-03  -0.477508E-03
     0.002
     0.188     0.375  -0.243673E-03  -0.319735E-03
     0.001
     0.188     0.438  -0.249571E-03  -0.157561E-03
     0.000
     0.188     0.500  -0.251152E-03   0.115736E-04
     0.000
     0.188     0.563  -0.250268E-03   0.176285E-03
     0.000
     0.188     0.625  -0.244562E-03   0.334731E-03
     0.001
     0.188     0.688  -0.227511E-03   0.492151E-03
     0.002
     0.188     0.750  -0.180063E-03   0.669094E-03
     0.005
     0.188     0.813  -0.766624E-04   0.765538E-03
     0.012
     0.188     0.875   0.175304E-03   0.596529E-03
     0.030
     0.188     0.938   0.761977E-03   0.320142E-03
     0.082
     0.188     1.000    0.00000        0.00000    
     0.188
     0.250     0.000    0.00000        0.00000    
     0.250
     0.250     0.063   0.858455E-03  -0.318205E-03
     0.109
     0.250     0.125   0.298091E-03  -0.559384E-03
     0.042
     0.250     0.188  -0.564431E-04  -0.698125E-03
     0.017
     0.250     0.250  -0.229551E-03  -0.617872E-03
     0.007
     0.250     0.313  -0.299075E-03  -0.470538E-03
     0.003
     0.250     0.375  -0.323841E-03  -0.313122E-03
     0.001
     0.250     0.438  -0.330360E-03  -0.154894E-03
     0.001
     0.250     0.500  -0.332944E-03   0.107641E-04
     0.000
     0.250     0.563  -0.332314E-03   0.173071E-03
     0.001
     0.250     0.625  -0.325867E-03   0.329154E-03
     0.001
     0.250     0.688  -0.306388E-03   0.485612E-03
     0.003
     0.250     0.750  -0.244114E-03   0.658281E-03
     0.007
     0.250     0.813  -0.114445E-03   0.752335E-03
     0.017
     0.250     0.875   0.169347E-03   0.585270E-03
     0.041
     0.250     0.938   0.100197E-02   0.318365E-03
     0.109
     0.250     1.000    0.00000        0.00000    
     0.250
     0.313     0.000    0.00000        0.00000    
     0.313
     0.313     0.063   0.111440E-02  -0.318957E-03
     0.137
     0.313     0.125   0.395351E-03  -0.557860E-03
     0.053
     0.313     0.188  -0.759197E-04  -0.694126E-03
     0.022
     0.313     0.250  -0.289087E-03  -0.611631E-03
     0.009
     0.313     0.313  -0.372513E-03  -0.459183E-03
     0.004
     0.313     0.375  -0.400397E-03  -0.305017E-03
     0.002
     0.313     0.438  -0.408041E-03  -0.149805E-03
     0.001
     0.313     0.500  -0.409472E-03   0.949378E-05
     0.001
     0.313     0.563  -0.409522E-03   0.167985E-03
     0.001
     0.313     0.625  -0.403083E-03   0.319376E-03
     0.002
     0.313     0.688  -0.379831E-03   0.474079E-03
     0.004
     0.313     0.750  -0.304963E-03   0.646560E-03
     0.009
     0.313     0.813  -0.117160E-03   0.739320E-03
     0.021
     0.313     0.875   0.327904E-03   0.581349E-03
     0.051
     0.313     0.938   0.122682E-02   0.316800E-03
     0.137
     0.313     1.000    0.00000        0.00000    
     0.313
     0.375     0.000    0.00000        0.00000    
     0.375
     0.375     0.063   0.130269E-02  -0.315820E-03
     0.164
     0.375     0.125   0.404651E-03  -0.548929E-03
     0.062
     0.375     0.188  -0.111476E-03  -0.683669E-03
     0.026
     0.375     0.250  -0.354586E-03  -0.595630E-03
     0.011
     0.375     0.313  -0.449218E-03  -0.442815E-03
     0.005
     0.375     0.375  -0.479823E-03  -0.291469E-03
     0.002
     0.375     0.438  -0.485869E-03  -0.142870E-03
     0.001
     0.375     0.500  -0.487638E-03   0.879249E-05
     0.001
     0.375     0.563  -0.488315E-03   0.160353E-03
     0.001
     0.375     0.625  -0.482882E-03   0.305888E-03
     0.002
     0.375     0.688  -0.457689E-03   0.456778E-03
     0.005
     0.375     0.750  -0.367806E-03   0.627168E-03
     0.011
     0.375     0.813  -0.161271E-03   0.722314E-03
     0.025
     0.375     0.875   0.289129E-03   0.568811E-03
     0.061
     0.375     0.938   0.145776E-02   0.314449E-03
     0.164
     0.375     1.000    0.00000        0.00000    
     0.375
     0.438     0.000    0.00000        0.00000    
     0.438
     0.438     0.063   0.154903E-02  -0.306302E-03
     0.192
     0.438     0.125   0.517155E-03  -0.537850E-03
     0.073
     0.438     0.188  -0.133110E-03  -0.665506E-03
     0.030
     0.438     0.250  -0.418629E-03  -0.572496E-03
     0.013
     0.438     0.313  -0.522045E-03  -0.415883E-03
     0.006
     0.438     0.375  -0.549943E-03  -0.271582E-03
     0.003
     0.438     0.438  -0.552786E-03  -0.130842E-03
     0.002
     0.438     0.500  -0.551205E-03   0.746932E-05
     0.001
     0.438     0.563  -0.553574E-03   0.148919E-03
     0.002
     0.438     0.625  -0.550967E-03   0.284889E-03
     0.003
     0.438     0.688  -0.526780E-03   0.431446E-03
     0.006
     0.438     0.750  -0.430004E-03   0.603037E-03
     0.013
     0.438     0.813  -0.167204E-03   0.701018E-03
     0.030
     0.438     0.875   0.462742E-03   0.558774E-03
     0.072
     0.438     0.938   0.167892E-02   0.310325E-03
     0.192
     0.438     1.000    0.00000        0.00000    
     0.438
     0.500     0.000    0.00000        0.00000    
     0.500
     0.500     0.063   0.173916E-02  -0.295588E-03
     0.219
     0.500     0.125   0.505294E-03  -0.511000E-03
     0.083
     0.500     0.188  -0.163434E-03  -0.633987E-03
     0.035
     0.500     0.250  -0.466776E-03  -0.532463E-03
     0.015
     0.500     0.313  -0.571841E-03  -0.376762E-03
     0.007
     0.500     0.375  -0.595360E-03  -0.240174E-03
     0.004
     0.500     0.438  -0.590487E-03  -0.113775E-03
     0.002
     0.500     0.500  -0.589121E-03   0.658481E-05
     0.002
     0.500     0.563  -0.594671E-03   0.132025E-03
     0.002
     0.500     0.625  -0.600501E-03   0.252352E-03
     0.004
     0.500     0.688  -0.586627E-03   0.391866E-03
     0.007
     0.500     0.750  -0.488210E-03   0.557389E-03
     0.015
     0.500     0.813  -0.230531E-03   0.665004E-03
     0.034
     0.500     0.875   0.376993E-03   0.533367E-03
     0.082
     0.500     0.938   0.188616E-02   0.302306E-03
     0.220
     0.500     1.000    0.00000        0.00000    
     0.500
     0.563     0.000    0.00000        0.00000    
     0.563
     0.563     0.063   0.199860E-02  -0.304407E-03
     0.247
     0.563     0.125   0.615854E-03  -0.478382E-03
     0.095
     0.563     0.188  -0.206327E-03  -0.578092E-03
     0.040
     0.563     0.250  -0.541750E-03  -0.469071E-03
     0.018
     0.563     0.313  -0.640759E-03  -0.312380E-03
     0.009
     0.563     0.375  -0.648137E-03  -0.193089E-03
     0.005
     0.563     0.438  -0.633257E-03  -0.860468E-04
     0.004
     0.563     0.500  -0.623009E-03   0.386470E-05
     0.004
     0.563     0.563  -0.633985E-03   0.104891E-03
     0.004
     0.563     0.625  -0.647805E-03   0.201991E-03
     0.005
     0.563     0.688  -0.645515E-03   0.325918E-03
     0.009
     0.563     0.750  -0.554450E-03   0.486862E-03
     0.018
     0.563     0.813  -0.248672E-03   0.598514E-03
     0.039
     0.563     0.875   0.546506E-03   0.503518E-03
     0.093
     0.563     0.938   0.209420E-02   0.288293E-03
     0.247
     0.563     1.000    0.00000        0.00000    
     0.563
     0.625     0.000    0.00000        0.00000    
     0.625
     0.625     0.063   0.207256E-02  -0.293779E-03
     0.275
     0.625     0.125   0.459711E-03  -0.425641E-03
     0.106
     0.625     0.188  -0.347021E-03  -0.490139E-03
     0.047
     0.625     0.250  -0.673469E-03  -0.364041E-03
     0.023
     0.625     0.313  -0.748402E-03  -0.218961E-03
     0.013
     0.625     0.375  -0.735562E-03  -0.122586E-03
     0.009
     0.625     0.438  -0.704827E-03  -0.483528E-04
     0.007
     0.625     0.500  -0.694097E-03   0.227888E-05
     0.007
     0.625     0.563  -0.713876E-03   0.684838E-04
     0.007
     0.625     0.625  -0.743890E-03   0.132491E-03
     0.009
     0.625     0.688  -0.759953E-03   0.235600E-03
     0.013
     0.625     0.750  -0.681847E-03   0.383645E-03
     0.023
     0.625     0.813  -0.385364E-03   0.504805E-03
     0.046
     0.625     0.875   0.382237E-03   0.458815E-03
     0.105
     0.625     0.938   0.228561E-02   0.275840E-03
     0.276
     0.625     1.000    0.00000        0.00000    
     0.625
     0.688     0.000    0.00000        0.00000    
     0.688
     0.688     0.063   0.219454E-02  -0.202208E-03
     0.305
     0.688     0.125   0.515303E-03  -0.299659E-03
     0.122
     0.688     0.188  -0.413974E-03  -0.328924E-03
     0.057
     0.688     0.250  -0.746435E-03  -0.199630E-03
     0.031
     0.688     0.313  -0.781221E-03  -0.680306E-04
     0.021
     0.688     0.375  -0.728463E-03  -0.253071E-04
     0.017
     0.688     0.438  -0.678454E-03   0.455795E-05
     0.015
     0.688     0.500  -0.656905E-03  -0.528594E-05
     0.015
     0.688     0.563  -0.683533E-03   0.133124E-04
     0.015
     0.688     0.625  -0.733054E-03   0.366444E-04
     0.017
     0.688     0.688  -0.773530E-03   0.103180E-03
     0.021
     0.688     0.750  -0.728290E-03   0.220749E-03
     0.031
     0.688     0.813  -0.421278E-03   0.357107E-03
     0.056
     0.688     0.875   0.521828E-03   0.402730E-03
     0.120
     0.688     0.938   0.243636E-02   0.288431E-03
     0.306
     0.688     1.000    0.00000        0.00000    
     0.688
     0.750     0.000    0.00000        0.00000    
     0.750
     0.750     0.063   0.239701E-02  -0.783229E-04
     0.339
     0.750     0.125   0.524321E-03  -0.532267E-04
     0.142
     0.750     0.188  -0.253337E-03  -0.721306E-04
     0.076
     0.750     0.250  -0.524400E-03   0.444673E-04
     0.050
     0.750     0.313  -0.481202E-03   0.126539E-03
     0.039
     0.750     0.375  -0.414963E-03   0.102894E-03
     0.036
     0.750     0.438  -0.345044E-03   0.652875E-04
     0.034
     0.750     0.500  -0.340855E-03  -0.902774E-05
     0.034
     0.750     0.563  -0.365074E-03  -0.522442E-04
     0.034
     0.750     0.625  -0.451014E-03  -0.943930E-04
     0.036
     0.750     0.688  -0.529197E-03  -0.777960E-04
     0.039
     0.750     0.750  -0.585676E-03  -0.568289E-04
     0.050
     0.750     0.813  -0.421264E-03   0.940668E-04
     0.075
     0.750     0.875   0.368409E-03   0.192820E-03
     0.141
     0.750     0.938   0.250883E-02   0.228889E-03
     0.340
     0.750     1.000    0.00000        0.00000    
     0.750
     0.813     0.000    0.00000        0.00000    
     0.813
     0.813     0.063   0.256221E-02   0.207215E-04
     0.382
     0.813     0.125   0.407114E-03   0.339255E-03
     0.181
     0.813     0.188  -0.377743E-03   0.393140E-03
     0.115
     0.813     0.250  -0.523250E-03   0.369608E-03
     0.090
     0.813     0.313  -0.403697E-03   0.376640E-03
     0.081
     0.813     0.375  -0.304457E-03   0.225301E-03
     0.077
     0.813     0.438  -0.211290E-03   0.112823E-03
     0.076
     0.813     0.500  -0.229793E-03  -0.231622E-04
     0.075
     0.813     0.563  -0.235247E-03  -0.128041E-03
     0.076
     0.813     0.625  -0.346747E-03  -0.233770E-03
     0.077
     0.813     0.688  -0.422817E-03  -0.317296E-03
     0.081
     0.813     0.750  -0.529339E-03  -0.467458E-03
     0.090
     0.813     0.813  -0.407074E-03  -0.407091E-03
     0.115
     0.813     0.875   0.424348E-03  -0.217134E-03
     0.181
     0.813     0.938   0.246959E-02  -0.393792E-04
     0.386
     0.813     1.000    0.00000        0.00000    
     0.813
     0.875     0.000    0.00000        0.00000    
     0.875
     0.875     0.063   0.133242E-02   0.218690E-03
     0.453
     0.875     0.125  -0.124596E-02   0.779898E-03
     0.259
     0.875     0.188  -0.140020E-02   0.882513E-03
     0.208
     0.875     0.250  -0.159925E-02   0.710583E-03
     0.187
     0.875     0.313  -0.133178E-02   0.574205E-03
     0.181
     0.875     0.375  -0.143522E-02   0.334345E-03
     0.177
     0.875     0.438  -0.118440E-02   0.147580E-03
     0.177
     0.875     0.500  -0.136980E-02  -0.196198E-04
     0.175
     0.875     0.563  -0.117852E-02  -0.172932E-03
     0.177
     0.875     0.625  -0.144324E-02  -0.323546E-03
     0.177
     0.875     0.688  -0.135192E-02  -0.503269E-03
     0.181
     0.875     0.750  -0.171847E-02  -0.844061E-03
     0.187
     0.875     0.813  -0.156316E-02  -0.933252E-03
     0.209
     0.875     0.875  -0.112081E-02  -0.864376E-03
     0.261
     0.875     0.938   0.106018E-02  -0.421463E-03
     0.463
     0.875     1.000    0.00000        0.00000    
     0.875
     0.938     0.000    0.00000        0.00000    
     0.938
     0.938     0.063   0.939825E-03   0.939825E-03
     0.638
     0.938     0.125  -0.224332E-03   0.116391E-02
     0.504
     0.938     0.188  -0.273154E-03   0.127224E-02
     0.471
     0.938     0.250   0.680712E-04   0.683127E-03
     0.459
     0.938     0.313   0.138624E-03   0.472371E-03
     0.455
     0.938     0.375   0.104553E-03   0.292520E-03
     0.453
     0.938     0.438   0.142737E-03   0.119260E-03
     0.453
     0.938     0.500   0.115991E-03  -0.140915E-04
     0.453
     0.938     0.563   0.148934E-03  -0.147526E-03
     0.453
     0.938     0.625   0.996203E-04  -0.318011E-03
     0.453
     0.938     0.688   0.618904E-04  -0.523081E-03
     0.455
     0.938     0.750  -0.472993E-04  -0.103560E-02
     0.460
     0.938     0.813  -0.161551E-03  -0.124434E-02
     0.473
     0.938     0.875   0.207924E-03  -0.130708E-02
     0.512
     0.938     0.938   0.124207E-02  -0.925437E-03
     0.641
     0.938     1.000    0.00000        0.00000    
     0.938
     1.000     0.000    0.00000        0.00000    
     1.000
     1.000     0.063    0.00000        0.00000    
     1.000
     1.000     0.125    0.00000        0.00000    
     1.000
     1.000     0.188    0.00000        0.00000    
     1.000
     1.000     0.250    0.00000        0.00000    
     1.000
     1.000     0.313    0.00000        0.00000    
     1.000
     1.000     0.375    0.00000        0.00000    
     1.000
     1.000     0.438    0.00000        0.00000    
     1.000
     1.000     0.500    0.00000        0.00000    
     1.000
     1.000     0.563    0.00000        0.00000    
     1.000
     1.000     0.625    0.00000        0.00000    
     1.000
     1.000     0.688    0.00000        0.00000    
     1.000
     1.000     0.750    0.00000        0.00000    
     1.000
     1.000     0.813    0.00000        0.00000    
     1.000
     1.000     0.875    0.00000        0.00000    
     1.000
     1.000     0.938    0.00000        0.00000    
     1.000
     1.000     1.000    0.00000        0.00000    
     1.000
 
Zone I=    17, J=    17, F=POINT
     0.000     0.000    0.00000       0.333626E-04
     0.000
     0.000     0.063    0.00000      -0.696537E-03
     0.000
     0.000     0.125    0.00000      -0.132102E-02
     0.000
     0.000     0.188    0.00000      -0.164103E-02
     0.000
     0.000     0.250    0.00000      -0.156302E-02
     0.000
     0.000     0.313    0.00000      -0.129789E-02
     0.000
     0.000     0.375    0.00000      -0.880427E-03
     0.000
     0.000     0.438    0.00000      -0.464995E-03
     0.000
     0.000     0.500    0.00000       0.295783E-04
     0.000
     0.000     0.563    0.00000       0.466009E-03
     0.000
     0.000     0.625    0.00000       0.904620E-03
     0.000
     0.000     0.688    0.00000       0.125669E-02
     0.000
     0.000     0.750    0.00000       0.168254E-02
     0.000
     0.000     0.813    0.00000       0.189874E-02
     0.000
     0.000     0.875    0.00000       0.130200E-02
     0.000
     0.000     0.938    0.00000       0.485502E-03
     0.000
     0.000     1.000    0.00000       0.105608E-03
     0.000
     0.063     0.000    0.00000        0.00000    
     0.063
     0.063     0.063   0.466121E-03  -0.679135E-03
     0.037
     0.063     0.125   0.289513E-03  -0.131433E-02
     0.021
     0.063     0.188   0.482836E-04  -0.166132E-02
     0.010
     0.063     0.250  -0.101085E-03  -0.157296E-02
     0.005
     0.063     0.313  -0.182144E-03  -0.129049E-02
     0.002
     0.063     0.375  -0.212202E-03  -0.887074E-03
     0.001
     0.063     0.438  -0.224723E-03  -0.452742E-03
     0.001
     0.063     0.500  -0.226240E-03   0.190419E-04
     0.001
     0.063     0.563  -0.227231E-03   0.472571E-03
     0.001
     0.063     0.625  -0.214931E-03   0.906123E-03
     0.001
     0.063     0.688  -0.172287E-03   0.128537E-02
     0.002
     0.063     0.750  -0.875588E-04   0.166915E-02
     0.005
     0.063     0.813  -0.443852E-05   0.185001E-02
     0.010
     0.063     0.875   0.170391E-03   0.134201E-02
     0.020
     0.063     0.938   0.584766E-03   0.544368E-03
     0.037
     0.063     1.000    0.00000        0.00000    
     0.063
     0.125     0.000    0.00000        0.00000    
     0.125
     0.125     0.063   0.871248E-03  -0.646154E-03
     0.075
     0.125     0.125   0.541080E-03  -0.128077E-02
     0.041
     0.125     0.188   0.753888E-04  -0.166949E-02
     0.021
     0.125     0.250  -0.219052E-03  -0.158123E-02
     0.010
     0.125     0.313  -0.366741E-03  -0.128731E-02
     0.005
     0.125     0.375  -0.433794E-03  -0.884109E-03
     0.002
     0.125     0.438  -0.457911E-03  -0.449554E-03
     0.001
     0.125     0.500  -0.464948E-03   0.163246E-04
     0.001
     0.125     0.563  -0.458053E-03   0.466603E-03
     0.001
     0.125     0.625  -0.432048E-03   0.899817E-03
     0.003
     0.125     0.688  -0.371449E-03   0.129753E-02
     0.005
     0.125     0.750  -0.226289E-03   0.166638E-02
     0.010
     0.125     0.813   0.774392E-05   0.180284E-02
     0.020
     0.125     0.875   0.367712E-03   0.131596E-02
     0.040
     0.125     0.938   0.102478E-02   0.605682E-03
     0.075
     0.125     1.000    0.00000        0.00000    
     0.125
     0.188     0.000    0.00000        0.00000    
     0.188
     0.188     0.063   0.137550E-02  -0.634438E-03
     0.113
     0.188     0.125   0.809653E-03  -0.127097E-02
     0.061
     0.188     0.188   0.106025E-03  -0.167610E-02
     0.031
     0.188     0.250  -0.326609E-03  -0.158348E-02
     0.015
     0.188     0.313  -0.542945E-03  -0.127672E-02
     0.007
     0.188     0.375  -0.637152E-03  -0.878274E-03
     0.004
     0.188     0.438  -0.675254E-03  -0.443377E-03
     0.002
     0.188     0.500  -0.685465E-03   0.148279E-04
     0.002
     0.188     0.563  -0.676638E-03   0.464603E-03
     0.002
     0.188     0.625  -0.638851E-03   0.894058E-03
     0.004
     0.188     0.688  -0.549558E-03   0.129497E-02
     0.007
     0.188     0.750  -0.344687E-03   0.165694E-02
     0.015
     0.188     0.813   0.494853E-04   0.177803E-02
     0.030
     0.188     0.875   0.727902E-03   0.130469E-02
     0.060
     0.188     0.938   0.150265E-02   0.612572E-03
     0.113
     0.188     1.000    0.00000        0.00000    
     0.188
     0.250     0.000    0.00000        0.00000    
     0.250
     0.250     0.063   0.180225E-02  -0.624958E-03
     0.150
     0.250     0.125   0.104153E-02  -0.125837E-02
     0.081
     0.250     0.188   0.127422E-03  -0.167407E-02
     0.041
     0.250     0.250  -0.441399E-03  -0.157546E-02
     0.020
     0.250     0.313  -0.722269E-03  -0.126096E-02
     0.010
     0.250     0.375  -0.847950E-03  -0.863218E-03
     0.005
     0.250     0.438  -0.895548E-03  -0.436597E-03
     0.003
     0.250     0.500  -0.909661E-03   0.139822E-04
     0.002
     0.250     0.563  -0.898825E-03   0.457622E-03
     0.003
     0.250     0.625  -0.850245E-03   0.881573E-03
     0.005
     0.250     0.688  -0.737221E-03   0.128024E-02
     0.010
     0.250     0.750  -0.468645E-03   0.163560E-02
     0.020
     0.250     0.813   0.520895E-04   0.175509E-02
     0.040
     0.250     0.875   0.893201E-03   0.128834E-02
     0.080
     0.250     0.938   0.197822E-02   0.611943E-03
     0.151
     0.250     1.000    0.00000        0.00000    
     0.250
     0.313     0.000    0.00000        0.00000    
     0.313
     0.313     0.063   0.229746E-02  -0.623394E-03
     0.188
     0.313     0.125   0.131318E-02  -0.125068E-02
     0.102
     0.313     0.188   0.150038E-03  -0.166276E-02
     0.052
     0.313     0.250  -0.552825E-03  -0.155878E-02
     0.026
     0.313     0.313  -0.899697E-03  -0.123565E-02
     0.013
     0.313     0.375  -0.105055E-02  -0.843848E-03
     0.006
     0.313     0.438  -0.110821E-02  -0.424400E-03
     0.004
     0.313     0.500  -0.112311E-02   0.124897E-04
     0.003
     0.313     0.563  -0.111111E-02   0.446831E-03
     0.004
     0.313     0.625  -0.105560E-02   0.861064E-03
     0.006
     0.313     0.688  -0.915019E-03   0.125516E-02
     0.012
     0.313     0.750  -0.582489E-03   0.161068E-02
     0.025
     0.313     0.813   0.950987E-04   0.172944E-02
     0.051
     0.313     0.875   0.125182E-02   0.127839E-02
     0.101
     0.313     0.938   0.243960E-02   0.609826E-03
     0.188
     0.313     1.000    0.00000        0.00000    
     0.313
     0.375     0.000    0.00000        0.00000    
     0.375
     0.375     0.063   0.270869E-02  -0.615948E-03
     0.226
     0.375     0.125   0.150124E-02  -0.123158E-02
     0.121
     0.375     0.188   0.147794E-03  -0.163604E-02
     0.062
     0.375     0.250  -0.682289E-03  -0.152029E-02
     0.031
     0.375     0.313  -0.108285E-02  -0.119595E-02
     0.016
     0.375     0.375  -0.125579E-02  -0.810285E-03
     0.008
     0.375     0.438  -0.131657E-02  -0.406579E-03
     0.005
     0.375     0.500  -0.133336E-02   0.117569E-04
     0.004
     0.375     0.563  -0.132091E-02   0.428753E-03
     0.005
     0.375     0.625  -0.125960E-02   0.828358E-03
     0.008
     0.375     0.688  -0.110023E-02   0.121454E-02
     0.015
     0.375     0.750  -0.708091E-03   0.156669E-02
     0.031
     0.375     0.813   0.841450E-04   0.169323E-02
     0.061
     0.375     0.875   0.137305E-02   0.125575E-02
     0.121
     0.375     0.938   0.290135E-02   0.605323E-03
     0.226
     0.375     1.000    0.00000        0.00000    
     0.375
     0.438     0.000    0.00000        0.00000    
     0.438
     0.438     0.063   0.318538E-02  -0.599088E-03
     0.264
     0.438     0.125   0.177797E-02  -0.120076E-02
     0.143
     0.438     0.188   0.159314E-03  -0.158865E-02
     0.073
     0.438     0.250  -0.802146E-03  -0.146050E-02
     0.037
     0.438     0.313  -0.125730E-02  -0.112981E-02
     0.019
     0.438     0.375  -0.144156E-02  -0.758844E-03
     0.010
     0.438     0.438  -0.150183E-02  -0.375310E-03
     0.007
     0.438     0.500  -0.151371E-02   0.101954E-04
     0.006
     0.438     0.563  -0.150332E-02   0.400715E-03
     0.007
     0.438     0.625  -0.144298E-02   0.777053E-03
     0.010
     0.438     0.688  -0.126803E-02   0.115089E-02
     0.019
     0.438     0.750  -0.825280E-03   0.150470E-02
     0.037
     0.438     0.813   0.113982E-03   0.163956E-02
     0.072
     0.438     0.875   0.173421E-02   0.122876E-02
     0.142
     0.438     0.938   0.334959E-02   0.596877E-03
     0.264
     0.438     1.000    0.00000        0.00000    
     0.438
     0.500     0.000    0.00000        0.00000    
     0.500
     0.500     0.063   0.358393E-02  -0.573976E-03
     0.302
     0.500     0.125   0.192676E-02  -0.113854E-02
     0.163
     0.500     0.188   0.149018E-03  -0.150438E-02
     0.085
     0.500     0.250  -0.917203E-03  -0.135539E-02
     0.044
     0.500     0.313  -0.140127E-02  -0.102716E-02
     0.024
     0.500     0.375  -0.158784E-02  -0.676033E-03
     0.014
     0.500     0.438  -0.163698E-02  -0.329383E-03
     0.010
     0.500     0.500  -0.164914E-02   0.878254E-05
     0.009
     0.500     0.563  -0.164624E-02   0.356254E-03
     0.010
     0.500     0.625  -0.159652E-02   0.693662E-03
     0.014
     0.500     0.688  -0.142833E-02   0.104793E-02
     0.024
     0.500     0.750  -0.955664E-03   0.139052E-02
     0.044
     0.500     0.813   0.608444E-04   0.154717E-02
     0.084
     0.500     0.875   0.178189E-02   0.117134E-02
     0.162
     0.500     0.938   0.376850E-02   0.578874E-03
     0.303
     0.500     1.000    0.00000        0.00000    
     0.500
     0.563     0.000    0.00000        0.00000    
     0.563
     0.563     0.063   0.404149E-02  -0.556911E-03
     0.342
     0.563     0.125   0.216192E-02  -0.104151E-02
     0.187
     0.563     0.188   0.109062E-03  -0.135455E-02
     0.099
     0.563     0.250  -0.106195E-02  -0.118207E-02
     0.053
     0.563     0.313  -0.156341E-02  -0.855571E-03
     0.031
     0.563     0.375  -0.172851E-02  -0.547682E-03
     0.020
     0.563     0.438  -0.175687E-02  -0.255043E-03
     0.016
     0.563     0.500  -0.175280E-02   0.357194E-05
     0.015
     0.563     0.563  -0.175885E-02   0.284410E-03
     0.016
     0.563     0.625  -0.172771E-02   0.565209E-03
     0.020
     0.563     0.688  -0.156901E-02   0.879156E-03
     0.031
     0.563     0.750  -0.107840E-02   0.120533E-02
     0.053
     0.563     0.813   0.558999E-04   0.137879E-02
     0.098
     0.563     0.875   0.210333E-02   0.108597E-02
     0.186
     0.563     0.938   0.417103E-02   0.547527E-03
     0.342
     0.563     1.000    0.00000        0.00000    
     0.563
     0.625     0.000    0.00000        0.00000    
     0.625
     0.625     0.063   0.424103E-02  -0.498775E-03
     0.382
     0.625     0.125   0.207724E-02  -0.874211E-03
     0.212
     0.625     0.188  -0.656940E-04  -0.110663E-02
     0.117
     0.625     0.250  -0.128260E-02  -0.895339E-03
     0.068
     0.625     0.313  -0.174117E-02  -0.597681E-03
     0.044
     0.625     0.375  -0.187030E-02  -0.351907E-03
     0.033
     0.625     0.438  -0.185855E-02  -0.150389E-03
     0.028
     0.625     0.500  -0.185314E-02   0.245036E-05
     0.026
     0.625     0.563  -0.187039E-02   0.184150E-03
     0.028
     0.625     0.625  -0.187611E-02   0.374181E-03
     0.033
     0.625     0.688  -0.175401E-02   0.630974E-03
     0.043
     0.625     0.750  -0.129311E-02   0.910380E-03
     0.068
     0.625     0.813  -0.126009E-03   0.111441E-02
     0.116
     0.625     0.875   0.199810E-02   0.932626E-03
     0.211
     0.625     0.938   0.449266E-02   0.496803E-03
     0.383
     0.625     1.000    0.00000        0.00000    
     0.625
     0.688     0.000    0.00000        0.00000    
     0.688
     0.688     0.063   0.447634E-02  -0.337661E-03
     0.427
     0.688     0.125   0.215323E-02  -0.534229E-03
     0.245
     0.688     0.188  -0.173862E-03  -0.660131E-03
     0.144
     0.688     0.250  -0.139993E-02  -0.439979E-03
     0.092