TITLE = "FLOW6 data"
Variables = "X","Y","P","U","V"
Zone N = 121, E = 200, DATAPACKING = POINT, ZONETYPE = FETRIANGLE
    0.00000        0.00000       0.149128E-02    0.00000        0.00000    
    0.00000       0.100000       0.166706E-01   0.298789E-13    0.00000    
    0.00000       0.200000       0.318500E-01  -0.758699E-13   0.491704E-12
    0.00000       0.300000       0.164502E-01  -0.434097E-12   0.807229E-12
    0.00000       0.400000       0.105041E-02   0.233660E-12  -0.162792E-11
    0.00000       0.500000      -0.571442E-01   0.147177E-11  -0.532904E-11
    0.00000       0.600000      -0.115339       0.589750E-11  -0.368154E-10
    0.00000       0.700000      -0.301069       0.118785E-10   0.639133E-10
    0.00000       0.800000      -0.486799      -0.717870E-11  -0.622080E-11
    0.00000       0.900000       -2.42578       0.337973E-10  -0.213092E-10
    0.00000        1.00000       -4.36477        0.00000        0.00000    
   0.100000        0.00000      -0.107877E-01  -0.278527E-13    0.00000    
   0.100000       0.100000       0.439166E-02  -0.434168E-02   0.434168E-02
   0.100000       0.200000       0.159250E-01  -0.115879E-01   0.219632E-01
   0.100000       0.300000       0.525203E-03  -0.190438E-01   0.487982E-01
   0.100000       0.400000      -0.175028E-01  -0.245674E-01   0.857621E-01
   0.100000       0.500000      -0.756974E-01  -0.233916E-01   0.133550    
   0.100000       0.600000      -0.181804      -0.276447E-01   0.186900    
   0.100000       0.700000      -0.367534      -0.590178E-01   0.252981    
   0.100000       0.800000      -0.410136      -0.900892E-01   0.487617    
   0.100000       0.900000       -2.34912      -0.915854E-01   0.399591    
   0.100000        1.00000       -2.17296        1.00000        0.00000    
   0.200000        0.00000      -0.230667E-01    0.00000        0.00000    
   0.200000       0.100000      -0.115333E-01  -0.198583E-01   0.879692E-02
   0.200000       0.200000        0.00000      -0.387941E-01   0.330542E-01
   0.200000       0.300000      -0.180280E-01  -0.569810E-01   0.715961E-01
   0.200000       0.400000      -0.360559E-01  -0.736558E-01   0.124768    
   0.200000       0.500000      -0.142162      -0.828705E-01   0.183847    
   0.200000       0.600000      -0.248268      -0.956074E-01   0.221378    
   0.200000       0.700000      -0.290871      -0.116545       0.250663    
   0.200000       0.800000      -0.333473      -0.133444       0.324097    
   0.200000       0.900000      -0.157309      -0.212068E-01   0.162209    
   0.200000        1.00000       0.188558E-01    1.00000        0.00000    
   0.300000        0.00000      -0.105873E-01    0.00000        0.00000    
   0.300000       0.100000       0.946063E-03  -0.378510E-01   0.946885E-02
   0.300000       0.200000       0.618201E-02  -0.695877E-01   0.323855E-01
   0.300000       0.300000      -0.118460E-01  -0.101373       0.644928E-01
   0.300000       0.400000      -0.129824E-01  -0.131330       0.114086    
   0.300000       0.500000      -0.119089      -0.156754       0.158600    
   0.300000       0.600000      -0.161771      -0.158197       0.181867    
   0.300000       0.700000      -0.204374      -0.968127E-01   0.197239    
   0.300000       0.800000      -0.314798       0.471336E-01   0.156377    
   0.300000       0.900000      -0.138633       0.357031       0.538374E-01
   0.300000        1.00000      -0.452429E-01    1.00000        0.00000    
   0.400000        0.00000       0.189213E-02    0.00000        0.00000    
   0.400000       0.100000       0.712807E-02  -0.523018E-01   0.535381E-02
   0.400000       0.200000       0.123640E-01  -0.931665E-01   0.176656E-01
   0.400000       0.300000       0.112276E-01  -0.131093       0.348732E-01
   0.400000       0.400000       0.100912E-01  -0.167178       0.643102E-01
   0.400000       0.500000      -0.325913E-01  -0.194265       0.924928E-01
   0.400000       0.600000      -0.752737E-01  -0.187983       0.119336    
   0.400000       0.700000      -0.185698      -0.937987E-01   0.131498    
   0.400000       0.800000      -0.296122       0.107790       0.697395E-01
   0.400000       0.900000      -0.202732       0.464401       0.880971E-02
   0.400000        1.00000      -0.109342        1.00000        0.00000    
   0.500000        0.00000       0.356211E-01    0.00000        0.00000    
   0.500000       0.100000       0.408570E-01  -0.579507E-01  -0.187055E-04
   0.500000       0.200000       0.339236E-01  -0.100889      -0.318242E-03
   0.500000       0.300000       0.327872E-01  -0.139207      -0.221055E-02
   0.500000       0.400000       0.334463E-01  -0.174934       0.158439E-02
   0.500000       0.500000      -0.923608E-02  -0.206706       0.165986E-02
   0.500000       0.600000       0.231197E-01  -0.203335       0.191529E-01
   0.500000       0.700000      -0.873045E-01  -0.121436       0.339317E-01
   0.500000       0.800000      -0.133750       0.827577E-01   0.348042E-02
   0.500000       0.900000      -0.403594E-01   0.468373      -0.712807E-02
   0.500000        1.00000      -0.608183E-01    1.00000        0.00000    
   0.600000        0.00000       0.693500E-01    0.00000        0.00000    
   0.600000       0.100000       0.624166E-01  -0.509062E-01  -0.551902E-02
   0.600000       0.200000       0.554832E-01  -0.916593E-01  -0.185917E-01
   0.600000       0.300000       0.561423E-01  -0.127605      -0.396909E-01
   0.600000       0.400000       0.568015E-01  -0.163375      -0.665888E-01
   0.600000       0.500000       0.891573E-01  -0.193158      -0.930819E-01
   0.600000       0.600000       0.121513      -0.195725      -0.973221E-01
   0.600000       0.700000       0.750679E-01  -0.135486      -0.856766E-01
   0.600000       0.800000       0.286229E-01   0.374156E-01  -0.627127E-01
   0.600000       0.900000       0.816393E-02   0.420869      -0.794474E-02
   0.600000        1.00000      -0.122950E-01    1.00000        0.00000    
   0.700000        0.00000       0.804169E-01    0.00000        0.00000    
   0.700000       0.100000       0.734835E-01  -0.380090E-01  -0.996230E-02
   0.700000       0.200000       0.665081E-01  -0.698443E-01  -0.311090E-01
   0.700000       0.300000       0.671673E-01  -0.100113      -0.652388E-01
   0.700000       0.400000       0.792930E-01  -0.127955      -0.109888    
   0.700000       0.500000       0.111649      -0.149936      -0.159906    
   0.700000       0.600000       0.152266      -0.163055      -0.202028    
   0.700000       0.700000       0.105821      -0.170183      -0.245564    
   0.700000       0.800000       0.456897      -0.436623E-01  -0.171791    
   0.700000       0.900000       0.436438       0.394509       0.193967E-01
   0.700000        1.00000      -0.163273        1.00000        0.00000    
   0.800000        0.00000       0.914838E-01    0.00000        0.00000    
   0.800000       0.100000       0.845084E-01  -0.205014E-01  -0.980718E-02
   0.800000       0.200000       0.775330E-01  -0.393768E-01  -0.320859E-01
   0.800000       0.300000       0.896587E-01  -0.597450E-01  -0.693811E-01
   0.800000       0.400000       0.101784      -0.785057E-01  -0.116262    
   0.800000       0.500000       0.142402      -0.936677E-01  -0.184103    
   0.800000       0.600000       0.183019      -0.107702      -0.283564    
   0.800000       0.700000       0.534095      -0.122624      -0.351383    
   0.800000       0.800000       0.885171      -0.410704E-01  -0.247761    
   0.800000       0.900000       0.285460       0.319321      -0.653555E-01
   0.800000        1.00000      -0.314251        1.00000        0.00000    
   0.900000        0.00000       0.826838E-01    0.00000        0.00000    
   0.900000       0.100000       0.757084E-01  -0.374511E-02  -0.398300E-02
   0.900000       0.200000       0.542780E-01  -0.105779E-01  -0.202636E-01
   0.900000       0.300000       0.664037E-01  -0.225750E-01  -0.492116E-01
   0.900000       0.400000       0.102144      -0.317236E-01  -0.822560E-01
   0.900000       0.500000       0.142761      -0.266960E-01  -0.123444    
   0.900000       0.600000       0.112788      -0.187782E-01  -0.214410    
   0.900000       0.700000       0.463864      -0.134415E-01  -0.276372    
   0.900000       0.800000       0.676720      -0.542118E-01  -0.261799    
   0.900000       0.900000       0.770088E-01  -0.329642      -0.670358    
   0.900000        1.00000        5.47390        1.00000        0.00000    
    1.00000        0.00000       0.738838E-01    0.00000        0.00000    
    1.00000       0.100000       0.524534E-01    0.00000        0.00000    
    1.00000       0.200000       0.310229E-01    0.00000        0.00000    
    1.00000       0.300000       0.667636E-01    0.00000        0.00000    
    1.00000       0.400000       0.102504        0.00000        0.00000    
    1.00000       0.500000       0.725309E-01    0.00000        0.00000    
    1.00000       0.600000       0.425576E-01    0.00000        0.00000    
    1.00000       0.700000       0.255413        0.00000        0.00000    
    1.00000       0.800000       0.468268        0.00000        0.00000    
    1.00000       0.900000        5.86516        0.00000        0.00000    
    1.00000        1.00000        11.2620        0.00000        0.00000    
    23    12     2
     3    13    12
     1     2    13
    12    13     2
     3    14    24
    23    13    14
    25    24    13
    14    13    24
    25    14     4
     5    15    14
     3     4    15
    14    15     4
     5    16    26
    25    15    16
    27    26    15
    16    15    26
    27    16     6
     7    17    16
     5     6    17
    16    17     6
     7    18    28
    27    17    18
    29    28    17
    18    17    28
    29    18     8
     9    19    18
     7     8    19
    18    19     8
     9    20    30
    29    19    20
    31    30    19
    20    19    30
    31    20    10
    11    21    20
     9    10    21
    20    21    10
    11    22    32
    31    21    22
    33    32    21
    22    21    32
    45    34    24
    25    35    34
    23    24    35
    34    35    24
    25    36    46
    45    35    36
    47    46    35
    36    35    46
    47    36    26
    27    37    36
    25    26    37
    36    37    26
    27    38    48
    47    37    38
    49    48    37
    38    37    48
    49    38    28
    29    39    38
    27    28    39
    38    39    28
    29    40    50
    49    39    40
    51    50    39
    40    39    50
    51    40    30
    31    41    40
    29    30    41
    40    41    30
    31    42    52
    51    41    42
    53    52    41
    42    41    52
    53    42    32
    33    43    42
    31    32    43
    42    43    32
    33    44    54
    53    43    44
    55    54    43
    44    43    54
    67    56    46
    47    57    56
    45    46    57
    56    57    46
    47    58    68
    67    57    58
    69    68    57
    58    57    68
    69    58    48
    49    59    58
    47    48    59
    58    59    48
    49    60    70
    69    59    60
    71    70    59
    60    59    70
    71    60    50
    51    61    60
    49    50    61
    60    61    50
    51    62    72
    71    61    62
    73    72    61
    62    61    72
    73    62    52
    53    63    62
    51    52    63
    62    63    52
    53    64    74
    73    63    64
    75    74    63
    64    63    74
    75    64    54
    55    65    64
    53    54    65
    64    65    54
    55    66    76
    75    65    66
    77    76    65
    66    65    76
    89    78    68
    69    79    78
    67    68    79
    78    79    68
    69    80    90
    89    79    80
    91    90    79
    80    79    90
    91    80    70
    71    81    80
    69    70    81
    80    81    70
    71    82    92
    91    81    82
    93    92    81
    82    81    92
    93    82    72
    73    83    82
    71    72    83
    82    83    72
    73    84    94
    93    83    84
    95    94    83
    84    83    94
    95    84    74
    75    85    84
    73    74    85
    84    85    74
    75    86    96
    95    85    86
    97    96    85
    86    85    96
    97    86    76
    77    87    86
    75    76    87
    86    87    76
    77    88    98
    97    87    88
    99    98    87
    88    87    98
   111   100    90
    91   101   100
    89    90   101
   100   101    90
    91   102   112
   111   101   102
   113   112   101
   102   101   112
   113   102    92
    93   103   102
    91    92   103
   102   103    92
    93   104   114
   113   103   104
   115   114   103
   104   103   114
   115   104    94
    95   105   104
    93    94   105
   104   105    94
    95   106   116
   115   105   106
   117   116   105
   106   105   116
   117   106    96
    97   107   106
    95    96   107
   106   107    96
    97   108   118
   117   107   108
   119   118   107
   108   107   118
   119   108    98
    99   109   108
    97    98   109
   108   109    98
    99   110   120
   119   109   110
   121   120   109
   110   109   120
