#GIMM_INFO: ns=1 ms=0 np=1 mp=0 dim=2 npx=1 npy=1 npz=1 ngx=21 ngy=31 ngz=1
#GIMM_VARS: tpx=1 tpy=1 tpz=0 tpf=1 svx=X svy=Y svz=@ svf=A
#GIMM_MINS: 0.000000e+000 0.000000e+000 -1.000000e+000 
#GIMM_MAXS: 1.000000e+000 1.000000e+000 1.000000e+000 
TITLE = "Distribution"
VARIABLES = "X","Y","A"
#GIMM_ZONE: num=0 mpx=0 mpy=0 mpz=0 szx=21 szy=31 szz=1 shx=0 shy=0 shz=0
ZONE T="ZONE 0", I=21, J=31, F=POINT
0.000000 0.000000 0.000000 
0.050000 0.000000 0.309017 
0.100000 0.000000 0.587785 
0.150000 0.000000 0.809017 
0.200000 0.000000 0.951057 
0.250000 0.000000 1.000000 
0.300000 0.000000 0.951056 
0.350000 0.000000 0.809017 
0.400000 0.000000 0.587785 
0.450000 0.000000 0.309017 
0.500000 0.000000 -0.000000 
0.550000 0.000000 -0.309017 
0.600000 0.000000 -0.587786 
0.650000 0.000000 -0.809017 
0.700000 0.000000 -0.951056 
0.750000 0.000000 -1.000000 
0.800000 0.000000 -0.951056 
0.850000 0.000000 -0.809017 
0.900000 0.000000 -0.587785 
0.950000 0.000000 -0.309017 
1.000000 0.000000 0.000000 
0.000000 0.033333 0.000000 
0.050000 0.033333 0.302264 
0.100000 0.033333 0.574941 
0.150000 0.033333 0.791338 
0.200000 0.033333 0.930274 
0.250000 0.033333 0.978148 
0.300000 0.033333 0.930274 
0.350000 0.033333 0.791338 
0.400000 0.033333 0.574941 
0.450000 0.033333 0.302264 
0.500000 0.033333 -0.000000 
0.550000 0.033333 -0.302264 
0.600000 0.033333 -0.574941 
0.650000 0.033333 -0.791338 
0.700000 0.033333 -0.930274 
0.750000 0.033333 -0.978148 
0.800000 0.033333 -0.930274 
0.850000 0.033333 -0.791338 
0.900000 0.033333 -0.574940 
0.950000 0.033333 -0.302264 
1.000000 0.033333 0.000000 
0.000000 0.066667 0.000000 
0.050000 0.066667 0.282301 
0.100000 0.066667 0.536969 
0.150000 0.066667 0.739074 
0.200000 0.066667 0.868833 
0.250000 0.066667 0.913545 
0.300000 0.066667 0.868833 
0.350000 0.066667 0.739074 
0.400000 0.066667 0.536968 
0.450000 0.066667 0.282301 
0.500000 0.066667 -0.000000 
0.550000 0.066667 -0.282301 
0.600000 0.066667 -0.536969 
0.650000 0.066667 -0.739074 
0.700000 0.066667 -0.868833 
0.750000 0.066667 -0.913545 
0.800000 0.066667 -0.868833 
0.850000 0.066667 -0.739074 
0.900000 0.066667 -0.536968 
0.950000 0.066667 -0.282301 
1.000000 0.066667 0.000000 
0.000000 0.100000 0.000000 
0.050000 0.100000 0.250000 
0.100000 0.100000 0.475528 
0.150000 0.100000 0.654509 
0.200000 0.100000 0.769421 
0.250000 0.100000 0.809017 
0.300000 0.100000 0.769421 
0.350000 0.100000 0.654508 
0.400000 0.100000 0.475528 
0.450000 0.100000 0.250000 
0.500000 0.100000 -0.000000 
0.550000 0.100000 -0.250000 
0.600000 0.100000 -0.475528 
0.650000 0.100000 -0.654509 
0.700000 0.100000 -0.769421 
0.750000 0.100000 -0.809017 
0.800000 0.100000 -0.769421 
0.850000 0.100000 -0.654508 
0.900000 0.100000 -0.475528 
0.950000 0.100000 -0.250000 
1.000000 0.100000 0.000000 
0.000000 0.133333 0.000000 
0.050000 0.133333 0.206773 
0.100000 0.133333 0.393305 
0.150000 0.133333 0.541338 
0.200000 0.133333 0.636381 
0.250000 0.133333 0.669131 
0.300000 0.133333 0.636381 
0.350000 0.133333 0.541338 
0.400000 0.133333 0.393305 
0.450000 0.133333 0.206773 
0.500000 0.133333 -0.000000 
0.550000 0.133333 -0.206773 
0.600000 0.133333 -0.393305 
0.650000 0.133333 -0.541338 
0.700000 0.133333 -0.636381 
0.750000 0.133333 -0.669131 
0.800000 0.133333 -0.636381 
0.850000 0.133333 -0.541338 
0.900000 0.133333 -0.393305 
0.950000 0.133333 -0.206773 
1.000000 0.133333 0.000000 
0.000000 0.166667 0.000000 
0.050000 0.166667 0.154508 
0.100000 0.166667 0.293893 
0.150000 0.166667 0.404509 
0.200000 0.166667 0.475528 
0.250000 0.166667 0.500000 
0.300000 0.166667 0.475528 
0.350000 0.166667 0.404508 
0.400000 0.166667 0.293893 
0.450000 0.166667 0.154508 
0.500000 0.166667 -0.000000 
0.550000 0.166667 -0.154509 
0.600000 0.166667 -0.293893 
0.650000 0.166667 -0.404509 
0.700000 0.166667 -0.475528 
0.750000 0.166667 -0.500000 
0.800000 0.166667 -0.475528 
0.850000 0.166667 -0.404508 
0.900000 0.166667 -0.293892 
0.950000 0.166667 -0.154508 
1.000000 0.166667 0.000000 
0.000000 0.200000 0.000000 
0.050000 0.200000 0.095491 
0.100000 0.200000 0.181636 
0.150000 0.200000 0.250000 
0.200000 0.200000 0.293893 
0.250000 0.200000 0.309017 
0.300000 0.200000 0.293892 
0.350000 0.200000 0.250000 
0.400000 0.200000 0.181636 
0.450000 0.200000 0.095491 
0.500000 0.200000 -0.000000 
0.550000 0.200000 -0.095492 
0.600000 0.200000 -0.181636 
0.650000 0.200000 -0.250000 
0.700000 0.200000 -0.293892 
0.750000 0.200000 -0.309017 
0.800000 0.200000 -0.293892 
0.850000 0.200000 -0.250000 
0.900000 0.200000 -0.181635 
0.950000 0.200000 -0.095491 
1.000000 0.200000 0.000000 
0.000000 0.233333 0.000000 
0.050000 0.233333 0.032301 
0.100000 0.233333 0.061440 
0.150000 0.233333 0.084565 
0.200000 0.233333 0.099412 
0.250000 0.233333 0.104528 
0.300000 0.233333 0.099412 
0.350000 0.233333 0.084565 
0.400000 0.233333 0.061440 
0.450000 0.233333 0.032301 
0.500000 0.233333 -0.000000 
0.550000 0.233333 -0.032301 
0.600000 0.233333 -0.061440 
0.650000 0.233333 -0.084565 
0.700000 0.233333 -0.099412 
0.750000 0.233333 -0.104528 
0.800000 0.233333 -0.099412 
0.850000 0.233333 -0.084565 
0.900000 0.233333 -0.061440 
0.950000 0.233333 -0.032301 
1.000000 0.233333 0.000000 
0.000000 0.266667 -0.000000 
0.050000 0.266667 -0.032301 
0.100000 0.266667 -0.061440 
0.150000 0.266667 -0.084565 
0.200000 0.266667 -0.099413 
0.250000 0.266667 -0.104529 
0.300000 0.266667 -0.099413 
0.350000 0.266667 -0.084565 
0.400000 0.266667 -0.061440 
0.450000 0.266667 -0.032301 
0.500000 0.266667 0.000000 
0.550000 0.266667 0.032301 
0.600000 0.266667 0.061440 
0.650000 0.266667 0.084565 
0.700000 0.266667 0.099413 
0.750000 0.266667 0.104529 
0.800000 0.266667 0.099413 
0.850000 0.266667 0.084565 
0.900000 0.266667 0.061440 
0.950000 0.266667 0.032301 
1.000000 0.266667 -0.000000 
0.000000 0.300000 -0.000000 
0.050000 0.300000 -0.095492 
0.100000 0.300000 -0.181636 
0.150000 0.300000 -0.250000 
0.200000 0.300000 -0.293893 
0.250000 0.300000 -0.309017 
0.300000 0.300000 -0.293893 
0.350000 0.300000 -0.250000 
0.400000 0.300000 -0.181636 
0.450000 0.300000 -0.095491 
0.500000 0.300000 0.000000 
0.550000 0.300000 0.095492 
0.600000 0.300000 0.181636 
0.650000 0.300000 0.250000 
0.700000 0.300000 0.293893 
0.750000 0.300000 0.309017 
0.800000 0.300000 0.293893 
0.850000 0.300000 0.250000 
0.900000 0.300000 0.181636 
0.950000 0.300000 0.095492 
1.000000 0.300000 -0.000000 
0.000000 0.333333 -0.000000 
0.050000 0.333333 -0.154509 
0.100000 0.333333 -0.293893 
0.150000 0.333333 -0.404509 
0.200000 0.333333 -0.475528 
0.250000 0.333333 -0.500000 
0.300000 0.333333 -0.475528 
0.350000 0.333333 -0.404509 
0.400000 0.333333 -0.293893 
0.450000 0.333333 -0.154508 
0.500000 0.333333 0.000000 
0.550000 0.333333 0.154509 
0.600000 0.333333 0.293893 
0.650000 0.333333 0.404509 
0.700000 0.333333 0.475528 
0.750000 0.333333 0.500000 
0.800000 0.333333 0.475528 
0.850000 0.333333 0.404508 
0.900000 0.333333 0.293893 
0.950000 0.333333 0.154508 
1.000000 0.333333 -0.000000 
0.000000 0.366667 -0.000000 
0.050000 0.366667 -0.206773 
0.100000 0.366667 -0.393305 
0.150000 0.366667 -0.541338 
0.200000 0.366667 -0.636381 
0.250000 0.366667 -0.669131 
0.300000 0.366667 -0.636381 
0.350000 0.366667 -0.541338 
0.400000 0.366667 -0.393305 
0.450000 0.366667 -0.206773 
0.500000 0.366667 0.000000 
0.550000 0.366667 0.206773 
0.600000 0.366667 0.393305 
0.650000 0.366667 0.541338 
0.700000 0.366667 0.636381 
0.750000 0.366667 0.669131 
0.800000 0.366667 0.636381 
0.850000 0.366667 0.541338 
0.900000 0.366667 0.393305 
0.950000 0.366667 0.206773 
1.000000 0.366667 -0.000000 
0.000000 0.400000 -0.000000 
0.050000 0.400000 -0.250000 
0.100000 0.400000 -0.475528 
0.150000 0.400000 -0.654509 
0.200000 0.400000 -0.769421 
0.250000 0.400000 -0.809017 
0.300000 0.400000 -0.769421 
0.350000 0.400000 -0.654509 
0.400000 0.400000 -0.475528 
0.450000 0.400000 -0.250000 
0.500000 0.400000 0.000000 
0.550000 0.400000 0.250000 
0.600000 0.400000 0.475529 
0.650000 0.400000 0.654509 
0.700000 0.400000 0.769421 
0.750000 0.400000 0.809017 
0.800000 0.400000 0.769421 
0.850000 0.400000 0.654509 
0.900000 0.400000 0.475528 
0.950000 0.400000 0.250000 
1.000000 0.400000 -0.000000 
0.000000 0.433333 -0.000000 
0.050000 0.433333 -0.282301 
0.100000 0.433333 -0.536969 
0.150000 0.433333 -0.739074 
0.200000 0.433333 -0.868834 
0.250000 0.433333 -0.913546 
0.300000 0.433333 -0.868833 
0.350000 0.433333 -0.739074 
0.400000 0.433333 -0.536969 
0.450000 0.433333 -0.282301 
0.500000 0.433333 0.000000 
0.550000 0.433333 0.282301 
0.600000 0.433333 0.536969 
0.650000 0.433333 0.739074 
0.700000 0.433333 0.868833 
0.750000 0.433333 0.913546 
0.800000 0.433333 0.868833 
0.850000 0.433333 0.739074 
0.900000 0.433333 0.536968 
0.950000 0.433333 0.282301 
1.000000 0.433333 -0.000000 
0.000000 0.466667 -0.000000 
0.050000 0.466667 -0.302264 
0.100000 0.466667 -0.574941 
0.150000 0.466667 -0.791338 
0.200000 0.466667 -0.930274 
0.250000 0.466667 -0.978148 
0.300000 0.466667 -0.930274 
0.350000 0.466667 -0.791338 
0.400000 0.466667 -0.574941 
0.450000 0.466667 -0.302264 
0.500000 0.466667 0.000000 
0.550000 0.466667 0.302264 
0.600000 0.466667 0.574941 
0.650000 0.466667 0.791338 
0.700000 0.466667 0.930274 
0.750000 0.466667 0.978148 
0.800000 0.466667 0.930274 
0.850000 0.466667 0.791338 
0.900000 0.466667 0.574941 
0.950000 0.466667 0.302264 
1.000000 0.466667 -0.000000 
0.000000 0.500000 -0.000000 
0.050000 0.500000 -0.309017 
0.100000 0.500000 -0.587785 
0.150000 0.500000 -0.809017 
0.200000 0.500000 -0.951057 
0.250000 0.500000 -1.000000 
0.300000 0.500000 -0.951056 
0.350000 0.500000 -0.809017 
0.400000 0.500000 -0.587785 
0.450000 0.500000 -0.309017 
0.500000 0.500000 0.000000 
0.550000 0.500000 0.309017 
0.600000 0.500000 0.587786 
0.650000 0.500000 0.809017 
0.700000 0.500000 0.951056 
0.750000 0.500000 1.000000 
0.800000 0.500000 0.951056 
0.850000 0.500000 0.809017 
0.900000 0.500000 0.587785 
0.950000 0.500000 0.309017 
1.000000 0.500000 -0.000000 
0.000000 0.533333 -0.000000 
0.050000 0.533333 -0.302264 
0.100000 0.533333 -0.574941 
0.150000 0.533333 -0.791338 
0.200000 0.533333 -0.930274 
0.250000 0.533333 -0.978148 
0.300000 0.533333 -0.930274 
0.350000 0.533333 -0.791338 
0.400000 0.533333 -0.574941 
0.450000 0.533333 -0.302264 
0.500000 0.533333 0.000000 
0.550000 0.533333 0.302264 
0.600000 0.533333 0.574941 
0.650000 0.533333 0.791338 
0.700000 0.533333 0.930274 
0.750000 0.533333 0.978148 
0.800000 0.533333 0.930274 
0.850000 0.533333 0.791338 
0.900000 0.533333 0.574940 
0.950000 0.533333 0.302264 
1.000000 0.533333 -0.000000 
0.000000 0.566667 -0.000000 
0.050000 0.566667 -0.282301 
0.100000 0.566667 -0.536968 
0.150000 0.566667 -0.739074 
0.200000 0.566667 -0.868833 
0.250000 0.566667 -0.913545 
0.300000 0.566667 -0.868833 
0.350000 0.566667 -0.739074 
0.400000 0.566667 -0.536968 
0.450000 0.566667 -0.282301 
0.500000 0.566667 0.000000 
0.550000 0.566667 0.282301 
0.600000 0.566667 0.536969 
0.650000 0.566667 0.739074 
0.700000 0.566667 0.868833 
0.750000 0.566667 0.913545 
0.800000 0.566667 0.868833 
0.850000 0.566667 0.739074 
0.900000 0.566667 0.536968 
0.950000 0.566667 0.282301 
1.000000 0.566667 -0.000000 
0.000000 0.600000 -0.000000 
0.050000 0.600000 -0.250000 
0.100000 0.600000 -0.475528 
0.150000 0.600000 -0.654508 
0.200000 0.600000 -0.769421 
0.250000 0.600000 -0.809017 
0.300000 0.600000 -0.769421 
0.350000 0.600000 -0.654508 
0.400000 0.600000 -0.475528 
0.450000 0.600000 -0.250000 
0.500000 0.600000 0.000000 
0.550000 0.600000 0.250000 
0.600000 0.600000 0.475528 
0.650000 0.600000 0.654508 
0.700000 0.600000 0.769421 
0.750000 0.600000 0.809017 
0.800000 0.600000 0.769421 
0.850000 0.600000 0.654508 
0.900000 0.600000 0.475528 
0.950000 0.600000 0.250000 
1.000000 0.600000 -0.000000 
0.000000 0.633333 -0.000000 
0.050000 0.633333 -0.206773 
0.100000 0.633333 -0.393305 
0.150000 0.633333 -0.541338 
0.200000 0.633333 -0.636381 
0.250000 0.633333 -0.669130 
0.300000 0.633333 -0.636381 
0.350000 0.633333 -0.541338 
0.400000 0.633333 -0.393305 
0.450000 0.633333 -0.206773 
0.500000 0.633333 0.000000 
0.550000 0.633333 0.206773 
0.600000 0.633333 0.393305 
0.650000 0.633333 0.541338 
0.700000 0.633333 0.636381 
0.750000 0.633333 0.669130 
0.800000 0.633333 0.636381 
0.850000 0.633333 0.541338 
0.900000 0.633333 0.393305 
0.950000 0.633333 0.206773 
1.000000 0.633333 -0.000000 
0.000000 0.666667 -0.000000 
0.050000 0.666667 -0.154508 
0.100000 0.666667 -0.293893 
0.150000 0.666667 -0.404508 
0.200000 0.666667 -0.475528 
0.250000 0.666667 -0.500000 
0.300000 0.666667 -0.475528 
0.350000 0.666667 -0.404508 
0.400000 0.666667 -0.293893 
0.450000 0.666667 -0.154508 
0.500000 0.666667 0.000000 
0.550000 0.666667 0.154509 
0.600000 0.666667 0.293893 
0.650000 0.666667 0.404509 
0.700000 0.666667 0.475528 
0.750000 0.666667 0.500000 
0.800000 0.666667 0.475528 
0.850000 0.666667 0.404508 
0.900000 0.666667 0.293892 
0.950000 0.666667 0.154508 
1.000000 0.666667 -0.000000 
0.000000 0.700000 -0.000000 
0.050000 0.700000 -0.095491 
0.100000 0.700000 -0.181635 
0.150000 0.700000 -0.250000 
0.200000 0.700000 -0.293892 
0.250000 0.700000 -0.309017 
0.300000 0.700000 -0.293892 
0.350000 0.700000 -0.250000 
0.400000 0.700000 -0.181635 
0.450000 0.700000 -0.095491 
0.500000 0.700000 0.000000 
0.550000 0.700000 0.095491 
0.600000 0.700000 0.181636 
0.650000 0.700000 0.250000 
0.700000 0.700000 0.293892 
0.750000 0.700000 0.309017 
0.800000 0.700000 0.293892 
0.850000 0.700000 0.250000 
0.900000 0.700000 0.181635 
0.950000 0.700000 0.095491 
1.000000 0.700000 -0.000000 
0.000000 0.733333 -0.000000 
0.050000 0.733333 -0.032301 
0.100000 0.733333 -0.061440 
0.150000 0.733333 -0.084565 
0.200000 0.733333 -0.099412 
0.250000 0.733333 -0.104528 
0.300000 0.733333 -0.099412 
0.350000 0.733333 -0.084565 
0.400000 0.733333 -0.061440 
0.450000 0.733333 -0.032301 
0.500000 0.733333 0.000000 
0.550000 0.733333 0.032301 
0.600000 0.733333 0.061440 
0.650000 0.733333 0.084565 
0.700000 0.733333 0.099412 
0.750000 0.733333 0.104528 
0.800000 0.733333 0.099412 
0.850000 0.733333 0.084565 
0.900000 0.733333 0.061440 
0.950000 0.733333 0.032301 
1.000000 0.733333 -0.000000 
0.000000 0.766667 0.000000 
0.050000 0.766667 0.032301 
0.100000 0.766667 0.061441 
0.150000 0.766667 0.084566 
0.200000 0.766667 0.099413 
0.250000 0.766667 0.104529 
0.300000 0.766667 0.099413 
0.350000 0.766667 0.084566 
0.400000 0.766667 0.061441 
0.450000 0.766667 0.032301 
0.500000 0.766667 -0.000000 
0.550000 0.766667 -0.032301 
0.600000 0.766667 -0.061441 
0.650000 0.766667 -0.084566 
0.700000 0.766667 -0.099413 
0.750000 0.766667 -0.104529 
0.800000 0.766667 -0.099413 
0.850000 0.766667 -0.084566 
0.900000 0.766667 -0.061440 
0.950000 0.766667 -0.032301 
1.000000 0.766667 0.000000 
0.000000 0.800000 0.000000 
0.050000 0.800000 0.095492 
0.100000 0.800000 0.181636 
0.150000 0.800000 0.250000 
0.200000 0.800000 0.293893 
0.250000 0.800000 0.309018 
0.300000 0.800000 0.293893 
0.350000 0.800000 0.250000 
0.400000 0.800000 0.181636 
0.450000 0.800000 0.095492 
0.500000 0.800000 -0.000000 
0.550000 0.800000 -0.095492 
0.600000 0.800000 -0.181636 
0.650000 0.800000 -0.250001 
0.700000 0.800000 -0.293893 
0.750000 0.800000 -0.309018 
0.800000 0.800000 -0.293893 
0.850000 0.800000 -0.250000 
0.900000 0.800000 -0.181636 
0.950000 0.800000 -0.095492 
1.000000 0.800000 0.000000 
0.000000 0.833333 0.000000 
0.050000 0.833333 0.154509 
0.100000 0.833333 0.293893 
0.150000 0.833333 0.404509 
0.200000 0.833333 0.475529 
0.250000 0.833333 0.500000 
0.300000 0.833333 0.475529 
0.350000 0.833333 0.404509 
0.400000 0.833333 0.293893 
0.450000 0.833333 0.154509 
0.500000 0.833333 -0.000000 
0.550000 0.833333 -0.154509 
0.600000 0.833333 -0.293893 
0.650000 0.833333 -0.404509 
0.700000 0.833333 -0.475529 
0.750000 0.833333 -0.500000 
0.800000 0.833333 -0.475529 
0.850000 0.833333 -0.404509 
0.900000 0.833333 -0.293893 
0.950000 0.833333 -0.154509 
1.000000 0.833333 0.000000 
0.000000 0.866667 0.000000 
0.050000 0.866667 0.206773 
0.100000 0.866667 0.393305 
0.150000 0.866667 0.541339 
0.200000 0.866667 0.636382 
0.250000 0.866667 0.669131 
0.300000 0.866667 0.636381 
0.350000 0.866667 0.541338 
0.400000 0.866667 0.393305 
0.450000 0.866667 0.206773 
0.500000 0.866667 -0.000000 
0.550000 0.866667 -0.206773 
0.600000 0.866667 -0.393306 
0.650000 0.866667 -0.541339 
0.700000 0.866667 -0.636381 
0.750000 0.866667 -0.669131 
0.800000 0.866667 -0.636381 
0.850000 0.866667 -0.541338 
0.900000 0.866667 -0.393305 
0.950000 0.866667 -0.206773 
1.000000 0.866667 0.000000 
0.000000 0.900000 0.000000 
0.050000 0.900000 0.250000 
0.100000 0.900000 0.475528 
0.150000 0.900000 0.654509 
0.200000 0.900000 0.769421 
0.250000 0.900000 0.809017 
0.300000 0.900000 0.769421 
0.350000 0.900000 0.654509 
0.400000 0.900000 0.475528 
0.450000 0.900000 0.250000 
0.500000 0.900000 -0.000000 
0.550000 0.900000 -0.250000 
0.600000 0.900000 -0.475529 
0.650000 0.900000 -0.654509 
0.700000 0.900000 -0.769421 
0.750000 0.900000 -0.809017 
0.800000 0.900000 -0.769421 
0.850000 0.900000 -0.654509 
0.900000 0.900000 -0.475528 
0.950000 0.900000 -0.250000 
1.000000 0.900000 0.000000 
0.000000 0.933333 0.000000 
0.050000 0.933333 0.282301 
0.100000 0.933333 0.536969 
0.150000 0.933333 0.739074 
0.200000 0.933333 0.868834 
0.250000 0.933333 0.913546 
0.300000 0.933333 0.868834 
0.350000 0.933333 0.739074 
0.400000 0.933333 0.536969 
0.450000 0.933333 0.282301 
0.500000 0.933333 -0.000000 
0.550000 0.933333 -0.282301 
0.600000 0.933333 -0.536969 
0.650000 0.933333 -0.739074 
0.700000 0.933333 -0.868834 
0.750000 0.933333 -0.913546 
0.800000 0.933333 -0.868834 
0.850000 0.933333 -0.739074 
0.900000 0.933333 -0.536968 
0.950000 0.933333 -0.282301 
1.000000 0.933333 0.000000 
0.000000 0.966667 0.000000 
0.050000 0.966667 0.302264 
0.100000 0.966667 0.574941 
0.150000 0.966667 0.791338 
0.200000 0.966667 0.930274 
0.250000 0.966667 0.978148 
0.300000 0.966667 0.930274 
0.350000 0.966667 0.791338 
0.400000 0.966667 0.574941 
0.450000 0.966667 0.302264 
0.500000 0.966667 -0.000000 
0.550000 0.966667 -0.302264 
0.600000 0.966667 -0.574941 
0.650000 0.966667 -0.791338 
0.700000 0.966667 -0.930274 
0.750000 0.966667 -0.978148 
0.800000 0.966667 -0.930274 
0.850000 0.966667 -0.791338 
0.900000 0.966667 -0.574941 
0.950000 0.966667 -0.302264 
1.000000 0.966667 0.000000 
0.000000 1.000000 0.000000 
0.050000 1.000000 0.309017 
0.100000 1.000000 0.587785 
0.150000 1.000000 0.809017 
0.200000 1.000000 0.951057 
0.250000 1.000000 1.000000 
0.300000 1.000000 0.951056 
0.350000 1.000000 0.809017 
0.400000 1.000000 0.587785 
0.450000 1.000000 0.309017 
0.500000 1.000000 -0.000000 
0.550000 1.000000 -0.309017 
0.600000 1.000000 -0.587786 
0.650000 1.000000 -0.809017 
0.700000 1.000000 -0.951056 
0.750000 1.000000 -1.000000 
0.800000 1.000000 -0.951056 
0.850000 1.000000 -0.809017 
0.900000 1.000000 -0.587785 
0.950000 1.000000 -0.309017 
1.000000 1.000000 0.000000 