TITLE = "tiny.dat"
VARIABLES = "X", "Y", "data_001", "data_002"
ZONE N = 5, E = 3, DATAPACKING = POINT, ZONETYPE = FETRIANGLE
    0.000000    0.000000    1.000000    0.000000
    1.000000    0.000000    0.800000    0.200000
    2.000000    0.000000    0.600000    0.400000
    0.000000    1.000000    0.900000    0.100000
    1.000000    1.000000    0.500000    0.500000
       1       2       4
       5       4       2
       2       3       5
