TITLE ="THE    1TH MODE WITH FREQ=   34.344 HZ ON AERO MODEL FROM FILE MODE1.PLT"
VARIABLES= X, Y, Z, EXTID
ZONE I=      96 J=      24 F=FEPOINT
  0.0000E+00  0.0000E+00 -4.0111E-03               101
  5.1764E-01  0.0000E+00  1.2917E-03               102
  7.6438E-01  9.2085E-01  3.5626E-02               107
  2.4674E-01  9.2085E-01  2.7800E-02               106
  5.1764E-01  0.0000E+00  1.2917E-03               102
  1.0353E+00  0.0000E+00  2.0710E-03               103
  1.2820E+00  9.2085E-01  4.0294E-02               108
  7.6438E-01  9.2085E-01  3.5626E-02               107
  1.0353E+00  0.0000E+00  2.0710E-03               103
  1.5529E+00  0.0000E+00  1.5784E-03               104
  1.7997E+00  9.2085E-01  3.8659E-02               109
  1.2820E+00  9.2085E-01  4.0294E-02               108
  1.5529E+00  0.0000E+00  1.5784E-03               104
  2.0705E+00  0.0000E+00 -3.9529E-03               105
  2.3173E+00  9.2085E-01  3.5565E-02               110
  1.7997E+00  9.2085E-01  3.8659E-02               109
  2.4674E-01  9.2085E-01  2.7800E-02               106
  7.6438E-01  9.2085E-01  3.5626E-02               107
  1.0111E+00  1.8417E+00  1.0629E-01               112
  4.9348E-01  1.8417E+00  9.9050E-02               111
  7.6438E-01  9.2085E-01  3.5626E-02               107
  1.2820E+00  9.2085E-01  4.0294E-02               108
  1.5288E+00  1.8417E+00  1.1346E-01               113
  1.0111E+00  1.8417E+00  1.0629E-01               112
  1.2820E+00  9.2085E-01  4.0294E-02               108
  1.7997E+00  9.2085E-01  3.8659E-02               109
  2.0464E+00  1.8417E+00  1.1918E-01               114
  1.5288E+00  1.8417E+00  1.1346E-01               113
  1.7997E+00  9.2085E-01  3.8659E-02               109
  2.3173E+00  9.2085E-01  3.5565E-02               110
  2.5640E+00  1.8417E+00  1.2443E-01               115
  2.0464E+00  1.8417E+00  1.1918E-01               114
  4.9348E-01  1.8417E+00  9.9050E-02               111
  1.0111E+00  1.8417E+00  1.0629E-01               112
  1.2579E+00  2.7626E+00  2.0556E-01               117
  7.4022E-01  2.7626E+00  1.9505E-01               116
  1.0111E+00  1.8417E+00  1.0629E-01               112
  1.5288E+00  1.8417E+00  1.1346E-01               113
  1.7755E+00  2.7626E+00  2.1592E-01               118
  1.2579E+00  2.7626E+00  2.0556E-01               117
  1.5288E+00  1.8417E+00  1.1346E-01               113
  2.0464E+00  1.8417E+00  1.1918E-01               114
  2.2931E+00  2.7626E+00  2.2442E-01               119
  1.7755E+00  2.7626E+00  2.1592E-01               118
  2.0464E+00  1.8417E+00  1.1918E-01               114
  2.5640E+00  1.8417E+00  1.2443E-01               115
  2.8108E+00  2.7626E+00  2.3340E-01               120
  2.2931E+00  2.7626E+00  2.2442E-01               119
  7.4022E-01  2.7626E+00  1.9505E-01               116
  1.2579E+00  2.7626E+00  2.0556E-01               117
  1.5046E+00  3.6834E+00  3.2391E-01               122
  9.8696E-01  3.6834E+00  3.1232E-01               121
  1.2579E+00  2.7626E+00  2.0556E-01               117
  1.7755E+00  2.7626E+00  2.1592E-01               118
  2.0222E+00  3.6834E+00  3.3578E-01               123
  1.5046E+00  3.6834E+00  3.2391E-01               122
  1.7755E+00  2.7626E+00  2.1592E-01               118
  2.2931E+00  2.7626E+00  2.2442E-01               119
  2.5399E+00  3.6834E+00  3.4694E-01               124
  2.0222E+00  3.6834E+00  3.3578E-01               123
  2.2931E+00  2.7626E+00  2.2442E-01               119
  2.8108E+00  2.7626E+00  2.3340E-01               120
  3.0575E+00  3.6834E+00  3.5794E-01               125
  2.5399E+00  3.6834E+00  3.4694E-01               124
  9.8696E-01  3.6834E+00  3.1232E-01               121
  1.5046E+00  3.6834E+00  3.2391E-01               122
  1.7513E+00  4.6043E+00  4.5212E-01               127
  1.2337E+00  4.6043E+00  4.3945E-01               126
  1.5046E+00  3.6834E+00  3.2391E-01               122
  2.0222E+00  3.6834E+00  3.3578E-01               123
  2.2690E+00  4.6043E+00  4.6479E-01               128
  1.7513E+00  4.6043E+00  4.5212E-01               127
  2.0222E+00  3.6834E+00  3.3578E-01               123
  2.5399E+00  3.6834E+00  3.4694E-01               124
  2.7866E+00  4.6043E+00  4.7677E-01               129
  2.2690E+00  4.6043E+00  4.6479E-01               128
  2.5399E+00  3.6834E+00  3.4694E-01               124
  3.0575E+00  3.6834E+00  3.5794E-01               125
  3.3042E+00  4.6043E+00  4.8880E-01               130
  2.7866E+00  4.6043E+00  4.7677E-01               129
  1.2337E+00  4.6043E+00  4.3945E-01               126
  1.7513E+00  4.6043E+00  4.5212E-01               127
  1.9981E+00  5.5251E+00  5.8396E-01               132
  1.4804E+00  5.5251E+00  5.7131E-01               131
  1.7513E+00  4.6043E+00  4.5212E-01               127
  2.2690E+00  4.6043E+00  4.6479E-01               128
  2.5157E+00  5.5251E+00  5.9642E-01               133
  1.9981E+00  5.5251E+00  5.8396E-01               132
  2.2690E+00  4.6043E+00  4.6479E-01               128
  2.7866E+00  4.6043E+00  4.7677E-01               129
  3.0334E+00  5.5251E+00  6.0906E-01               134
  2.5157E+00  5.5251E+00  5.9642E-01               133
  2.7866E+00  4.6043E+00  4.7677E-01               129
  3.3042E+00  4.6043E+00  4.8880E-01               130
  3.5510E+00  5.5251E+00  6.2116E-01               135
  3.0334E+00  5.5251E+00  6.0906E-01               134
       1       2       3       4
       5       6       7       8
       9      10      11      12
      13      14      15      16
      17      18      19      20
      21      22      23      24
      25      26      27      28
      29      30      31      32
      33      34      35      36
      37      38      39      40
      41      42      43      44
      45      46      47      48
      49      50      51      52
      53      54      55      56
      57      58      59      60
      61      62      63      64
      65      66      67      68
      69      70      71      72
      73      74      75      76
      77      78      79      80
      81      82      83      84
      85      86      87      88
      89      90      91      92
      93      94      95      96
