TITLE ="ZAERO UNSTEADY CP: PLTCP=      25 MODE=       2 MACH=  0.9000 K=  0.1000"
VARIABLES= X, Y, Z, RE(CP), IM(CP), MAG(CP), PHASE(CP), EXTID
ZONE T="     0.00000 SEC." I=    1394 J=    1016 F=FEPOINT
  0.8000E+01   0.0000E+00  -0.5000E+01   0.1571E-07  -0.1425E-05   0.1425E-05  -0.8937E+02       1001
  0.8000E+01   0.0000E+00  -0.5000E+01   0.5081E-07  -0.1979E-05   0.1979E-05  -0.8853E+02       1002
  0.8000E+01   0.0000E+00  -0.5000E+01   0.9696E-07  -0.2152E-05   0.2154E-05  -0.8742E+02       1003
  0.8000E+01   0.0000E+00  -0.5000E+01   0.3640E-07  -0.9886E-06   0.9892E-06  -0.8789E+02       1004
  0.8000E+01   0.0000E+00  -0.5000E+01  -0.3522E-07  -0.2065E-06   0.2095E-06  -0.9968E+02       1005
  0.2500E+02   0.0000E+00  -0.7900E+01   0.6251E-07  -0.1237E-05   0.1239E-05  -0.8711E+02       1006
  0.2500E+02   0.2000E+01  -0.7300E+01   0.1192E-06  -0.1349E-05   0.1354E-05  -0.8495E+02       1007
  0.2500E+02   0.3000E+01  -0.4500E+01   0.1974E-06  -0.1199E-05   0.1215E-05  -0.8065E+02       1008
  0.2500E+02   0.2000E+01  -0.2500E+01   0.1276E-06  -0.3667E-06   0.3882E-06  -0.7082E+02       1009
  0.2500E+02   0.0000E+00  -0.1800E+01   0.3623E-07   0.2033E-06   0.2065E-06   0.7990E+02       1010
  0.4200E+02   0.0000E+00  -0.1080E+02   0.1486E-06  -0.8658E-06   0.8785E-06  -0.8026E+02       1011
  0.4200E+02   0.4000E+01  -0.9600E+01   0.2768E-06  -0.4629E-07   0.2806E-06  -0.9495E+01       1012
  0.4200E+02   0.6000E+01  -0.4000E+01   0.4297E-06   0.7656E-06   0.8780E-06   0.6069E+02       1013
  0.4200E+02   0.4000E+01   0.0000E+00   0.2818E-06   0.9312E-06   0.9729E-06   0.7317E+02       1014
  0.4200E+02   0.0000E+00   0.1400E+01   0.1090E-06   0.1105E-05   0.1110E-05   0.8436E+02       1015
  0.5900E+02   0.0000E+00  -0.1370E+02   0.2439E-06  -0.5248E-06   0.5787E-06  -0.6508E+02       1016
  0.5900E+02   0.6000E+01  -0.1190E+02   0.3885E-06   0.1306E-05   0.1363E-05   0.7344E+02       1017
  0.5900E+02   0.9000E+01  -0.3500E+01   0.5309E-06   0.2829E-05   0.2879E-05   0.7937E+02       1018
  0.5900E+02   0.6000E+01   0.2500E+01   0.3407E-06   0.2275E-05   0.2301E-05   0.8148E+02       1019
  0.5900E+02   0.0000E+00   0.4600E+01   0.1528E-06   0.2029E-05   0.2035E-05   0.8569E+02       1020
  0.7600E+02   0.0000E+00  -0.1660E+02   0.3402E-06  -0.1984E-06   0.3939E-06  -0.3025E+02       1021
  0.7600E+02   0.8000E+01  -0.1420E+02   0.4768E-06   0.2660E-05   0.2702E-05   0.7984E+02       1022
  0.7600E+02   0.1200E+02  -0.3000E+01   0.6264E-06   0.4884E-05   0.4924E-05   0.8269E+02       1023
  0.7600E+02   0.8000E+01   0.5000E+01   0.4307E-06   0.3599E-05   0.3625E-05   0.8318E+02       1024
  0.7600E+02   0.0000E+00   0.7800E+01   0.2221E-06   0.2948E-05   0.2957E-05   0.8569E+02       1025
  0.9300E+02   0.0000E+00  -0.1950E+02   0.4118E-06   0.1440E-06   0.4363E-06   0.1927E+02       1026
  0.9300E+02   0.1000E+02  -0.1650E+02   0.5820E-06   0.4035E-05   0.4077E-05   0.8179E+02       1027
  0.9300E+02   0.1500E+02  -0.2500E+01   0.8244E-06   0.6962E-05   0.7011E-05   0.8325E+02       1028
  0.9300E+02   0.1000E+02   0.7500E+01   0.5898E-06   0.4964E-05   0.4999E-05   0.8322E+02       1029
  0.9300E+02   0.0000E+00   0.1100E+02   0.2830E-06   0.3930E-05   0.3940E-05   0.8588E+02       1030
  0.1100E+03   0.0000E+00  -0.2240E+02   0.4569E-06   0.4993E-06   0.6768E-06   0.4754E+02       1031
  0.1100E+03   0.1200E+02  -0.1880E+02   0.6408E-06   0.5481E-05   0.5518E-05   0.8333E+02       1032
  0.1100E+03   0.1800E+02  -0.2000E+01   0.9699E-06   0.9190E-05   0.9241E-05   0.8398E+02       1033
  0.1100E+03   0.1200E+02   0.1000E+02   0.7422E-06   0.6438E-05   0.6481E-05   0.8342E+02       1034
  0.1100E+03   0.0000E+00   0.1420E+02   0.3692E-06   0.4959E-05   0.4972E-05   0.8574E+02       1035
  0.1270E+03   0.0000E+00  -0.2530E+02   0.4475E-06   0.8570E-06   0.9668E-06   0.6243E+02       1036
  0.1270E+03   0.1400E+02  -0.2110E+02   0.6384E-06   0.7019E-05   0.7048E-05   0.8480E+02       1037
  0.1270E+03   0.2100E+02  -0.1500E+01   0.1117E-05   0.1164E-04   0.1169E-04   0.8452E+02       1038
  0.1270E+03   0.1400E+02   0.1250E+02   0.9535E-06   0.8110E-05   0.8166E-05   0.8329E+02       1039
  0.1270E+03   0.0000E+00   0.1740E+02   0.5033E-06   0.6120E-05   0.6141E-05   0.8530E+02       1040
  0.1440E+03   0.0000E+00  -0.2820E+02   0.3206E-06   0.1130E-05   0.1175E-05   0.7416E+02       1041
  0.1440E+03   0.1600E+02  -0.2340E+02   0.5113E-06   0.8664E-05   0.8679E-05   0.8662E+02       1042
  0.1440E+03   0.2400E+02  -0.1000E+01   0.1261E-05   0.1454E-04   0.1459E-04   0.8504E+02       1043
  0.1440E+03   0.1600E+02   0.1500E+02   0.1275E-05   0.1024E-04   0.1032E-04   0.8290E+02       1044
  0.1440E+03   0.0000E+00   0.2060E+02   0.7286E-06   0.7598E-05   0.7633E-05   0.8452E+02       1045
  0.1610E+03   0.0000E+00  -0.3110E+02  -0.9787E-07   0.1510E-05   0.1513E-05   0.9371E+02       1046
  0.1610E+03   0.1800E+02  -0.2570E+02  -0.2043E-07   0.1036E-04   0.1036E-04   0.9011E+02       1047
  0.1610E+03   0.2700E+02  -0.5000E+00   0.1288E-05   0.1725E-04   0.1730E-04   0.8573E+02       1048
  0.1610E+03   0.1800E+02   0.1750E+02   0.1849E-05   0.1210E-04   0.1224E-04   0.8131E+02       1049
  0.1610E+03   0.0000E+00   0.2380E+02   0.1180E-05   0.8906E-05   0.8984E-05   0.8245E+02       1050
  0.1780E+03   0.0000E+00  -0.3400E+02  -0.2413E-05  -0.1644E-04   0.1662E-04  -0.9835E+02       1051
  0.1780E+03   0.2000E+02  -0.2800E+02  -0.6085E-05  -0.5878E-04   0.5910E-04  -0.9591E+02       1052
  0.1780E+03   0.3000E+02   0.0000E+00   0.1009E-05   0.1939E-04   0.1941E-04   0.8702E+02       1053
  0.1780E+03   0.2000E+02   0.2000E+02   0.7645E-05   0.8883E-04   0.8916E-04   0.8508E+02       1054
  0.1780E+03   0.0000E+00   0.2700E+02   0.3517E-05   0.3777E-04   0.3793E-04   0.8468E+02       1055
  0.1978E+03   0.0000E+00  -0.3400E+02  -0.5145E-05  -0.3671E-04   0.3707E-04  -0.9798E+02       1056
  0.1978E+03   0.2000E+02  -0.2800E+02  -0.1244E-04  -0.1198E-03   0.1204E-03  -0.9593E+02       1057
  0.1978E+03   0.3000E+02   0.0000E+00  -0.5287E-06   0.1789E-04   0.1789E-04   0.9169E+02       1058
  0.1978E+03   0.2000E+02   0.2000E+02   0.1208E-04   0.1526E-03   0.1531E-03   0.8548E+02       1059
  0.1978E+03   0.0000E+00   0.2700E+02   0.5481E-05   0.6664E-04   0.6687E-04   0.8530E+02       1060
  0.2177E+03   0.0000E+00  -0.3400E+02  -0.7916E-05  -0.5248E-04   0.5307E-04  -0.9858E+02       1061
  0.2177E+03   0.2000E+02  -0.2800E+02  -0.1725E-04  -0.1392E-03   0.1403E-03  -0.9707E+02       1062
  0.2177E+03   0.3000E+02   0.0000E+00  -0.3738E-05   0.9313E-05   0.1004E-04   0.1119E+03       1063
  0.2177E+03   0.2000E+02   0.2000E+02   0.1269E-04   0.1608E-03   0.1613E-03   0.8549E+02       1064
  0.2177E+03   0.0000E+00   0.2700E+02   0.6261E-05   0.7696E-04   0.7722E-04   0.8535E+02       1065
  0.2375E+03   0.0000E+00  -0.3400E+02  -0.1269E-04  -0.8618E-04   0.8711E-04  -0.9838E+02       1066
  0.2375E+03   0.2000E+02  -0.2800E+02  -0.2595E-04  -0.2080E-03   0.2097E-03  -0.9711E+02       1067
  0.2375E+03   0.3000E+02   0.0000E+00  -0.7517E-05  -0.7001E-05   0.1027E-04  -0.1370E+03       1068
  0.2375E+03   0.2000E+02   0.2000E+02   0.1631E-04   0.2074E-03   0.2080E-03   0.8550E+02       1069
  0.2375E+03   0.0000E+00   0.2700E+02   0.8453E-05   0.9885E-04   0.9921E-04   0.8511E+02       1070
  0.2574E+03   0.0000E+00  -0.3400E+02  -0.1662E-04  -0.1320E-03   0.1330E-03  -0.9717E+02       1071
  0.2574E+03   0.2000E+02  -0.2800E+02  -0.3084E-04  -0.2991E-03   0.3007E-03  -0.9589E+02       1072
  0.2574E+03   0.3000E+02   0.0000E+00  -0.8342E-05  -0.2799E-04   0.2921E-04  -0.1066E+03       1073
  0.2574E+03   0.2000E+02   0.2000E+02   0.1962E-04   0.2696E-03   0.2703E-03   0.8584E+02       1074
  0.2574E+03   0.0000E+00   0.2700E+02   0.1087E-04   0.1290E-03   0.1295E-03   0.8518E+02       1075
  0.2772E+03   0.0000E+00  -0.3400E+02  -0.1245E-04  -0.1677E-03   0.1681E-03  -0.9425E+02       1076
  0.2772E+03   0.2000E+02  -0.2800E+02  -0.1793E-04  -0.3570E-03   0.3574E-03  -0.9288E+02       1077
  0.2772E+03   0.3000E+02   0.0000E+00  -0.4766E-06  -0.3306E-04   0.3307E-04  -0.9083E+02       1078
  0.2772E+03   0.2000E+02   0.2000E+02   0.1600E-04   0.3182E-03   0.3186E-03   0.8712E+02       1079
  0.2772E+03   0.0000E+00   0.2700E+02   0.9551E-05   0.1562E-03   0.1565E-03   0.8650E+02       1080
  0.2971E+03   0.0000E+00  -0.3400E+02   0.1065E-05  -0.1635E-03   0.1635E-03  -0.8963E+02       1081
  0.2971E+03   0.2000E+02  -0.2800E+02   0.1283E-04  -0.3240E-03   0.3242E-03  -0.8773E+02       1082
  0.2971E+03   0.3000E+02   0.0000E+00   0.1389E-04   0.2245E-05   0.1407E-04   0.9184E+01       1083
  0.2971E+03   0.2000E+02   0.2000E+02   0.2874E-05   0.3266E-03   0.3267E-03   0.8950E+02       1084
  0.2971E+03   0.0000E+00   0.2700E+02   0.2562E-05   0.1644E-03   0.1644E-03   0.8911E+02       1085
  0.3169E+03   0.0000E+00  -0.3400E+02   0.1392E-04  -0.1317E-03   0.1324E-03  -0.8396E+02       1086
  0.3169E+03   0.2000E+02  -0.2800E+02   0.3912E-04  -0.2404E-03   0.2436E-03  -0.8076E+02       1087
  0.3169E+03   0.3000E+02   0.0000E+00   0.1992E-04   0.5716E-04   0.6053E-04   0.7079E+02       1088
  0.3169E+03   0.2000E+02   0.2000E+02  -0.1622E-04   0.3106E-03   0.3110E-03   0.9299E+02       1089
  0.3169E+03   0.0000E+00   0.2700E+02  -0.7957E-05   0.1577E-03   0.1579E-03   0.9289E+02       1090
  0.3368E+03   0.0000E+00  -0.3400E+02   0.2000E-04  -0.1056E-03   0.1075E-03  -0.7928E+02       1091
  0.3368E+03   0.2000E+02  -0.2800E+02   0.4966E-04  -0.1779E-03   0.1847E-03  -0.7441E+02       1092
  0.3368E+03   0.3000E+02   0.0000E+00   0.1188E-04   0.8146E-04   0.8232E-04   0.8170E+02       1093
  0.3368E+03   0.2000E+02   0.2000E+02  -0.3759E-04   0.2769E-03   0.2794E-03   0.9773E+02       1094
  0.3368E+03   0.0000E+00   0.2700E+02  -0.1962E-04   0.1406E-03   0.1419E-03   0.9795E+02       1095
  0.3566E+03   0.0000E+00  -0.3400E+02   0.2209E-04  -0.9234E-04   0.9494E-04  -0.7655E+02       1096
  0.3566E+03   0.2000E+02  -0.2800E+02   0.5333E-04  -0.1431E-03   0.1527E-03  -0.6956E+02       1097
  0.3566E+03   0.3000E+02   0.0000E+00   0.6542E-05   0.9048E-04   0.9072E-04   0.8586E+02       1098
  0.3566E+03   0.2000E+02   0.2000E+02  -0.4151E-04   0.2802E-03   0.2833E-03   0.9843E+02       1099
  0.3566E+03   0.0000E+00   0.2700E+02  -0.1153E-04   0.1856E-03   0.1860E-03   0.9356E+02       1100
  0.3765E+03   0.0000E+00  -0.3400E+02   0.2940E-04  -0.5742E-04   0.6451E-04  -0.6289E+02       1101
  0.3765E+03   0.2000E+02  -0.2800E+02   0.5002E-04  -0.1444E-03   0.1528E-03  -0.7090E+02       1102
  0.3765E+03   0.3000E+02   0.0000E+00  -0.1083E-06   0.4950E-04   0.4950E-04   0.9013E+02       1103
  0.3765E+03   0.2000E+02   0.2000E+02  -0.2735E-04   0.3051E-03   0.3063E-03   0.9512E+02       1104
  0.3765E+03   0.0000E+00   0.2700E+02   0.1615E-04   0.2798E-03   0.2803E-03   0.8670E+02       1105
  0.3927E+03   0.0000E+00  -0.3400E+02   0.5440E-04   0.1044E-03   0.1177E-03   0.6248E+02       1106
  0.3927E+03   0.2000E+02  -0.2800E+02   0.4792E-04  -0.1192E-03   0.1284E-03  -0.6809E+02       1107
  0.3927E+03   0.3000E+02   0.0000E+00  -0.5225E-05  -0.4762E-04   0.4790E-04  -0.9626E+02       1108
  0.3927E+03   0.2000E+02   0.2000E+02  -0.5522E-05   0.2692E-03   0.2693E-03   0.9117E+02       1109
  0.3927E+03   0.0000E+00   0.2700E+02   0.4085E-04   0.2910E-03   0.2938E-03   0.8201E+02       1110
  0.4089E+03   0.0000E+00  -0.3400E+02   0.4721E-04   0.1306E-03   0.1388E-03   0.7012E+02       1111
  0.4089E+03   0.2000E+02  -0.2800E+02   0.4236E-04  -0.5826E-04   0.7203E-04  -0.5398E+02       1112
  0.4089E+03   0.3000E+02   0.0000E+00   0.1398E-04  -0.3466E-04   0.3737E-04  -0.6803E+02       1113
  0.4089E+03   0.2000E+02   0.2000E+02   0.2793E-04   0.2113E-03   0.2131E-03   0.8247E+02       1114
  0.4089E+03   0.0000E+00   0.2700E+02   0.6540E-04   0.2447E-03   0.2533E-03   0.7504E+02       1115
  0.4218E+03   0.0000E+00  -0.3400E+02   0.1827E-04   0.1023E-04   0.2093E-04   0.2925E+02       1116
  0.4218E+03   0.2000E+02  -0.2800E+02   0.3000E-04  -0.2882E-04   0.4160E-04  -0.4385E+02       1117
  0.4218E+03   0.3000E+02   0.0000E+00   0.3614E-04   0.3596E-04   0.5098E-04   0.4486E+02       1118
  0.4218E+03   0.2000E+02   0.2000E+02   0.6122E-04   0.1757E-03   0.1861E-03   0.7079E+02       1119
  0.4218E+03   0.0000E+00   0.2700E+02   0.9191E-04   0.2117E-03   0.2308E-03   0.6653E+02       1120
  0.4346E+03   0.0000E+00  -0.3400E+02   0.1403E-04  -0.8014E-05   0.1616E-04  -0.2974E+02       1121
  0.4346E+03   0.2000E+02  -0.2800E+02   0.2544E-04  -0.1933E-04   0.3195E-04  -0.3722E+02       1122
  0.4346E+03   0.3000E+02   0.0000E+00   0.4537E-04   0.4740E-04   0.6561E-04   0.4626E+02       1123
  0.4346E+03   0.2000E+02   0.2000E+02   0.8306E-04   0.1535E-03   0.1745E-03   0.6158E+02       1124
  0.4346E+03   0.0000E+00   0.2700E+02   0.1122E-03   0.1816E-03   0.2135E-03   0.5828E+02       1125
  0.4474E+03   0.0000E+00  -0.3400E+02   0.1302E-04  -0.2469E-04   0.2791E-04  -0.6220E+02       1126
  0.4474E+03   0.2000E+02  -0.2800E+02   0.2680E-04  -0.4860E-04   0.5550E-04  -0.6113E+02       1127
  0.4474E+03   0.3000E+02   0.0000E+00   0.5101E-04   0.3925E-04   0.6436E-04   0.3758E+02       1128
  0.4474E+03   0.2000E+02   0.2000E+02   0.8913E-04   0.1460E-03   0.1711E-03   0.5860E+02       1129
  0.4474E+03   0.0000E+00   0.2700E+02   0.1168E-03   0.1410E-03   0.1831E-03   0.5036E+02       1130
  0.4602E+03   0.0000E+00  -0.3400E+02   0.1669E-04  -0.4532E-04   0.4829E-04  -0.6978E+02       1131
  0.4602E+03   0.2000E+02  -0.2800E+02   0.3959E-04  -0.9660E-04   0.1044E-03  -0.6772E+02       1132
  0.4602E+03   0.3000E+02   0.0000E+00   0.5513E-04   0.1910E-04   0.5834E-04   0.1911E+02       1133
  0.4602E+03   0.2000E+02   0.2000E+02   0.7617E-04   0.1380E-03   0.1576E-03   0.6111E+02       1134
  0.4602E+03   0.0000E+00   0.2700E+02   0.1046E-03   0.8993E-04   0.1379E-03   0.4070E+02       1135
  0.4731E+03   0.0000E+00  -0.3400E+02   0.2500E-04  -0.5147E-04   0.5722E-04  -0.6410E+02       1136
  0.4731E+03   0.2000E+02  -0.2800E+02   0.6052E-04  -0.1045E-03   0.1207E-03  -0.5991E+02       1137
  0.4731E+03   0.3000E+02   0.0000E+00   0.5886E-04  -0.2796E-06   0.5886E-04  -0.2722E+00       1138
  0.4731E+03   0.2000E+02   0.2000E+02   0.5385E-04   0.9454E-04   0.1088E-03   0.6033E+02       1139
  0.4731E+03   0.0000E+00   0.2700E+02   0.8603E-04   0.3219E-04   0.9186E-04   0.2052E+02       1140
  0.4859E+03   0.0000E+00  -0.3400E+02   0.3135E-04  -0.4457E-04   0.5449E-04  -0.5488E+02       1141
  0.4859E+03   0.2000E+02  -0.2800E+02   0.7385E-04  -0.7839E-04   0.1077E-03  -0.4671E+02       1142
  0.4859E+03   0.3000E+02   0.0000E+00   0.6078E-04  -0.1084E-04   0.6174E-04  -0.1011E+02       1143
  0.4859E+03   0.2000E+02   0.2000E+02   0.3871E-04   0.3508E-04   0.5224E-04   0.4219E+02       1144
  0.4859E+03   0.0000E+00   0.2700E+02   0.7222E-04  -0.2035E-04   0.7503E-04  -0.1574E+02       1145
  0.4987E+03   0.0000E+00  -0.3400E+02   0.3166E-04  -0.3502E-04   0.4721E-04  -0.4788E+02       1146
  0.4987E+03   0.2000E+02  -0.2800E+02   0.7248E-04  -0.5460E-04   0.9075E-04  -0.3699E+02       1147
  0.4987E+03   0.3000E+02   0.0000E+00   0.5945E-04  -0.1457E-04   0.6121E-04  -0.1377E+02       1148
  0.4987E+03   0.2000E+02   0.2000E+02   0.3619E-04  -0.3101E-05   0.3632E-04  -0.4898E+01       1149
  0.4987E+03   0.0000E+00   0.2700E+02   0.6678E-04  -0.5125E-04   0.8418E-04  -0.3751E+02       1150
  0.5115E+03   0.0000E+00  -0.3400E+02   0.2468E-04  -0.2954E-04   0.3849E-04  -0.5012E+02       1151
  0.5115E+03   0.2000E+02  -0.2800E+02   0.5600E-04  -0.4238E-04   0.7023E-04  -0.3712E+02       1152
  0.5115E+03   0.3000E+02   0.0000E+00   0.5379E-04  -0.1539E-04   0.5595E-04  -0.1596E+02       1153
  0.5115E+03   0.2000E+02   0.2000E+02   0.4314E-04  -0.1489E-04   0.4563E-04  -0.1905E+02       1154
  0.5115E+03   0.0000E+00   0.2700E+02   0.6601E-04  -0.5424E-04   0.8543E-04  -0.3941E+02       1155
  0.5244E+03   0.0000E+00  -0.3400E+02   0.3571E-05  -0.4256E-04   0.4271E-04  -0.8520E+02       1156
  0.5244E+03   0.2000E+02  -0.2800E+02   0.1105E-04  -0.6825E-04   0.6914E-04  -0.8080E+02       1157
  0.5244E+03   0.3000E+02   0.0000E+00   0.3892E-04  -0.3922E-04   0.5526E-04  -0.4521E+02       1158
  0.5244E+03   0.2000E+02   0.2000E+02   0.6497E-04   0.1176E-05   0.6498E-04   0.1037E+01       1159
  0.5244E+03   0.0000E+00   0.2700E+02   0.7063E-04  -0.1314E-04   0.7184E-04  -0.1054E+02       1160
  0.5372E+03   0.0000E+00  -0.3400E+02  -0.1209E-04  -0.5662E-04   0.5790E-04  -0.1021E+03       1161
  0.5372E+03   0.2000E+02  -0.2800E+02  -0.2173E-04  -0.9641E-04   0.9883E-04  -0.1027E+03       1162
  0.5372E+03   0.3000E+02   0.0000E+00   0.2816E-04  -0.6270E-04   0.6873E-04  -0.6581E+02       1163
  0.5372E+03   0.2000E+02   0.2000E+02   0.8144E-04   0.1640E-04   0.8308E-04   0.1139E+02       1164
  0.5372E+03   0.0000E+00   0.2700E+02   0.7518E-04   0.2199E-04   0.7833E-04   0.1631E+02       1165
  0.1858E+03   0.7100E+02  -0.3050E+02  -0.5826E-05  -0.4636E-03   0.4636E-03  -0.9072E+02       2001
  0.1858E+03   0.7100E+02  -0.3050E+02  -0.7160E-05  -0.1495E-03   0.1497E-03  -0.9274E+02       2002
  0.1858E+03   0.7100E+02  -0.3050E+02  -0.9933E-05   0.3880E-03   0.3881E-03   0.9147E+02       2003
  0.1858E+03   0.7100E+02  -0.3050E+02  -0.1186E-04   0.6828E-03   0.6829E-03   0.9100E+02       2004
  0.1858E+03   0.7100E+02  -0.3050E+02  -0.1096E-04   0.7030E-03   0.7031E-03   0.9089E+02       2005
  0.1858E+03   0.7100E+02  -0.3050E+02  -0.7522E-05   0.4336E-03   0.4337E-03   0.9099E+02       2006
  0.1858E+03   0.7100E+02  -0.3050E+02  -0.4371E-05  -0.1147E-03   0.1148E-03  -0.9218E+02       2007
  0.1858E+03   0.7100E+02  -0.3050E+02  -0.3499E-05  -0.6114E-03   0.6114E-03  -0.9033E+02       2008
  0.1858E+03   0.7100E+02  -0.3050E+02  -0.3738E-05  -0.7780E-03   0.7780E-03  -0.9028E+02       2009
  0.2100E+03   0.7100E+02  -0.3850E+02  -0.5381E-05  -0.3179E-03   0.3179E-03  -0.9097E+02       2010
  0.2100E+03   0.7666E+02  -0.3616E+02  -0.7888E-05  -0.7265E-04   0.7308E-04  -0.9620E+02       2011
  0.2100E+03   0.7900E+02  -0.3050E+02  -0.1334E-04   0.3220E-03   0.3222E-03   0.9237E+02       2012
  0.2100E+03   0.7666E+02  -0.2484E+02  -0.1766E-04   0.5036E-03   0.5039E-03   0.9201E+02       2013
  0.2100E+03   0.7100E+02  -0.2250E+02  -0.1712E-04   0.5102E-03   0.5105E-03   0.9192E+02       2014
  0.2100E+03   0.6534E+02  -0.2484E+02  -0.1179E-04   0.3392E-03   0.3394E-03   0.9199E+02       2015
  0.2100E+03   0.6300E+02  -0.3050E+02  -0.5943E-05  -0.6189E-04   0.6218E-04  -0.9549E+02       2016
  0.2100E+03   0.6534E+02  -0.3616E+02  -0.3049E-05  -0.4488E-03   0.4488E-03  -0.9039E+02       2017
  0.2100E+03   0.7100E+02  -0.3850E+02  -0.2596E-05  -0.5801E-03   0.5801E-03  -0.9026E+02       2018
  0.2212E+03   0.7100E+02  -0.3981E+02  -0.5943E-05  -0.1644E-03   0.1645E-03  -0.9207E+02       2019
  0.2212E+03   0.7758E+02  -0.3708E+02  -0.1014E-04   0.1041E-04   0.1454E-04   0.1342E+03       2020
  0.2212E+03   0.8031E+02  -0.3050E+02  -0.1933E-04   0.2548E-03   0.2555E-03   0.9434E+02       2021
  0.2212E+03   0.7758E+02  -0.2392E+02  -0.2693E-04   0.3107E-03   0.3119E-03   0.9495E+02       2022
  0.2212E+03   0.7100E+02  -0.2119E+02  -0.2690E-04   0.2986E-03   0.2998E-03   0.9515E+02       2023
  0.2212E+03   0.6442E+02  -0.2392E+02  -0.1909E-04   0.2311E-03   0.2319E-03   0.9472E+02       2024
  0.2212E+03   0.6169E+02  -0.3050E+02  -0.9500E-05  -0.1611E-04   0.1870E-04  -0.1205E+03       2025
  0.2212E+03   0.6442E+02  -0.3708E+02  -0.3537E-05  -0.2859E-03   0.2859E-03  -0.9071E+02       2026
  0.2212E+03   0.7100E+02  -0.3981E+02  -0.1991E-05  -0.3774E-03   0.3774E-03  -0.9030E+02       2027
  0.2325E+03   0.7100E+02  -0.4113E+02  -0.9744E-05  -0.1627E-03   0.1630E-03  -0.9343E+02       2028
  0.2325E+03   0.7852E+02  -0.3802E+02  -0.1474E-04   0.1096E-04   0.1837E-04   0.1434E+03       2029
  0.2325E+03   0.8163E+02  -0.3050E+02  -0.2541E-04   0.2474E-03   0.2487E-03   0.9586E+02       2030
  0.2325E+03   0.7852E+02  -0.2298E+02  -0.3414E-04   0.2862E-03   0.2883E-03   0.9680E+02       2031
  0.2325E+03   0.7100E+02  -0.1987E+02  -0.3432E-04   0.2638E-03   0.2661E-03   0.9741E+02       2032
  0.2325E+03   0.6348E+02  -0.2298E+02  -0.2596E-04   0.1957E-03   0.1974E-03   0.9755E+02       2033
  0.2325E+03   0.6037E+02  -0.3050E+02  -0.1498E-04  -0.4744E-04   0.4975E-04  -0.1075E+03       2034
  0.2325E+03   0.6348E+02  -0.3802E+02  -0.7203E-05  -0.3021E-03   0.3021E-03  -0.9137E+02       2035
  0.2325E+03   0.7100E+02  -0.4113E+02  -0.4908E-05  -0.3831E-03   0.3831E-03  -0.9073E+02       2036
  0.2438E+03   0.7100E+02  -0.4244E+02  -0.1864E-04  -0.1893E-03   0.1902E-03  -0.9562E+02       2037
  0.2438E+03   0.7944E+02  -0.3894E+02  -0.2426E-04  -0.1653E-04   0.2936E-04  -0.1457E+03       2038
  0.2438E+03   0.8294E+02  -0.3050E+02  -0.3578E-04   0.2177E-03   0.2206E-03   0.9933E+02       2039
  0.2438E+03   0.7944E+02  -0.2206E+02  -0.4498E-04   0.2479E-03   0.2520E-03   0.1003E+03       2040
  0.2438E+03   0.7100E+02  -0.1856E+02  -0.4564E-04   0.2100E-03   0.2149E-03   0.1023E+03       2041
  0.2438E+03   0.6256E+02  -0.2206E+02  -0.3796E-04   0.1208E-03   0.1266E-03   0.1074E+03       2042
  0.2438E+03   0.5906E+02  -0.3050E+02  -0.2615E-04  -0.1254E-03   0.1281E-03  -0.1018E+03       2043
  0.2438E+03   0.6256E+02  -0.3894E+02  -0.1609E-04  -0.3528E-03   0.3531E-03  -0.9261E+02       2044
  0.2438E+03   0.7100E+02  -0.4244E+02  -0.1282E-04  -0.4164E-03   0.4166E-03  -0.9176E+02       2045
  0.2550E+03   0.7100E+02  -0.4375E+02  -0.3157E-04  -0.1723E-03   0.1752E-03  -0.1004E+03       2046
  0.2550E+03   0.8037E+02  -0.3987E+02  -0.3940E-04  -0.4767E-04   0.6184E-04  -0.1296E+03       2047
  0.2550E+03   0.8425E+02  -0.3050E+02  -0.5590E-04   0.8248E-04   0.9964E-04   0.1241E+03       2048
  0.2550E+03   0.8037E+02  -0.2113E+02  -0.7066E-04   0.1336E-04   0.7191E-04   0.1693E+03       2049
  0.2550E+03   0.7100E+02  -0.1725E+02  -0.7353E-04  -0.6064E-04   0.9531E-04  -0.1405E+03       2050
  0.2550E+03   0.6163E+02  -0.2113E+02  -0.6179E-04  -0.9671E-04   0.1148E-03  -0.1226E+03       2051
  0.2550E+03   0.5775E+02  -0.3050E+02  -0.4308E-04  -0.2296E-03   0.2336E-03  -0.1006E+03       2052
  0.2550E+03   0.6163E+02  -0.3987E+02  -0.2830E-04  -0.3483E-03   0.3494E-03  -0.9465E+02       2053
  0.2550E+03   0.7100E+02  -0.4375E+02  -0.2369E-04  -0.3709E-03   0.3716E-03  -0.9365E+02       2054
  0.2708E+03   0.7100E+02  -0.4375E+02  -0.5071E-04  -0.2402E-03   0.2455E-03  -0.1019E+03       2055
  0.2708E+03   0.8037E+02  -0.3987E+02  -0.6478E-04  -0.1882E-03   0.1991E-03  -0.1090E+03       2056
  0.2708E+03   0.8425E+02  -0.3050E+02  -0.9542E-04  -0.2245E-03   0.2439E-03  -0.1130E+03       2057
  0.2708E+03   0.8037E+02  -0.2113E+02  -0.1246E-03  -0.4675E-03   0.4838E-03  -0.1049E+03       2058
  0.2708E+03   0.7100E+02  -0.1725E+02  -0.1155E-03  -0.5834E-03   0.5947E-03  -0.1012E+03       2059
  0.2708E+03   0.6163E+02  -0.2113E+02  -0.7870E-04  -0.4878E-03   0.4941E-03  -0.9917E+02       2060
  0.2708E+03   0.5775E+02  -0.3050E+02  -0.5143E-04  -0.4268E-03   0.4299E-03  -0.9687E+02       2061
  0.2708E+03   0.6163E+02  -0.3987E+02  -0.3652E-04  -0.4020E-03   0.4036E-03  -0.9519E+02       2062
  0.2708E+03   0.7100E+02  -0.4375E+02  -0.3383E-04  -0.3814E-03   0.3828E-03  -0.9507E+02       2063
  0.2867E+03   0.7100E+02  -0.4375E+02  -0.6999E-04  -0.4770E-03   0.4822E-03  -0.9835E+02       2064
  0.2867E+03   0.8037E+02  -0.3987E+02  -0.9396E-04  -0.4958E-03   0.5046E-03  -0.1007E+03       2065
  0.2867E+03   0.8425E+02  -0.3050E+02  -0.1436E-03  -0.6697E-03   0.6849E-03  -0.1021E+03       2066
  0.2867E+03   0.8037E+02  -0.2113E+02  -0.1831E-03  -0.9752E-03   0.9923E-03  -0.1006E+03       2067
  0.2867E+03   0.7100E+02  -0.1725E+02  -0.1273E-03  -0.1026E-02   0.1034E-02  -0.9707E+02       2068
  0.2867E+03   0.6163E+02  -0.2113E+02  -0.4701E-04  -0.8082E-03   0.8095E-03  -0.9333E+02       2069
  0.2867E+03   0.5775E+02  -0.3050E+02  -0.3059E-04  -0.6345E-03   0.6352E-03  -0.9276E+02       2070
  0.2867E+03   0.6163E+02  -0.3987E+02  -0.3014E-04  -0.5539E-03   0.5547E-03  -0.9312E+02       2071
  0.2867E+03   0.7100E+02  -0.4375E+02  -0.3538E-04  -0.5287E-03   0.5299E-03  -0.9383E+02       2072
  0.3025E+03   0.7100E+02  -0.4375E+02  -0.6919E-04  -0.7197E-03   0.7230E-03  -0.9549E+02       2073
  0.3025E+03   0.8037E+02  -0.3987E+02  -0.9978E-04  -0.8348E-03   0.8408E-03  -0.9682E+02       2074
  0.3025E+03   0.8425E+02  -0.3050E+02  -0.1582E-03  -0.1157E-02   0.1168E-02  -0.9778E+02       2075
  0.3025E+03   0.8037E+02  -0.2113E+02  -0.1947E-03  -0.1499E-02   0.1512E-02  -0.9740E+02       2076
  0.3025E+03   0.7100E+02  -0.1725E+02  -0.9066E-04  -0.1193E-02   0.1197E-02  -0.9434E+02       2077
  0.3025E+03   0.6163E+02  -0.2113E+02   0.2079E-04  -0.6892E-03   0.6895E-03  -0.8827E+02       2078
  0.3025E+03   0.5775E+02  -0.3050E+02   0.1363E-04  -0.6008E-03   0.6010E-03  -0.8870E+02       2079
  0.3025E+03   0.6163E+02  -0.3987E+02  -0.6206E-05  -0.5967E-03   0.5967E-03  -0.9060E+02       2080
  0.3025E+03   0.7100E+02  -0.4375E+02  -0.2022E-04  -0.6171E-03   0.6174E-03  -0.9188E+02       2081
  0.3183E+03   0.7100E+02  -0.4375E+02  -0.3714E-04  -0.8587E-03   0.8595E-03  -0.9248E+02       2082
  0.3183E+03   0.8037E+02  -0.3987E+02  -0.6374E-04  -0.1038E-02   0.1040E-02  -0.9351E+02       2083
  0.3183E+03   0.8425E+02  -0.3050E+02  -0.1106E-03  -0.1441E-02   0.1445E-02  -0.9439E+02       2084
  0.3183E+03   0.8037E+02  -0.2113E+02  -0.1375E-03  -0.1814E-02   0.1819E-02  -0.9433E+02       2085
  0.3183E+03   0.7100E+02  -0.1725E+02  -0.2666E-04  -0.1164E-02   0.1164E-02  -0.9131E+02       2086
  0.3183E+03   0.6163E+02  -0.2113E+02   0.7964E-04  -0.3939E-03   0.4019E-03  -0.7857E+02       2087
  0.3183E+03   0.5775E+02  -0.3050E+02   0.5593E-04  -0.4559E-03   0.4593E-03  -0.8301E+02       2088
  0.3183E+03   0.6163E+02  -0.3987E+02   0.2676E-04  -0.5625E-03   0.5632E-03  -0.8728E+02       2089
  0.3183E+03   0.7100E+02  -0.4375E+02   0.1015E-04  -0.6347E-03   0.6348E-03  -0.8908E+02       2090
  0.3342E+03   0.7100E+02  -0.4375E+02   0.1913E-04  -0.8430E-03   0.8432E-03  -0.8870E+02       2091
  0.3342E+03   0.8037E+02  -0.3987E+02   0.8128E-05  -0.1014E-02   0.1014E-02  -0.8954E+02       2092
  0.3342E+03   0.8425E+02  -0.3050E+02  -0.5285E-05  -0.1368E-02   0.1368E-02  -0.9022E+02       2093
  0.3342E+03   0.8037E+02  -0.2113E+02  -0.3567E-05  -0.1652E-02   0.1652E-02  -0.9012E+02       2094
  0.3342E+03   0.7100E+02  -0.1725E+02   0.4821E-04  -0.1024E-02   0.1025E-02  -0.8730E+02       2095
  0.3342E+03   0.6163E+02  -0.2113E+02   0.8875E-04  -0.3211E-03   0.3332E-03  -0.7455E+02       2096
  0.3342E+03   0.5775E+02  -0.3050E+02   0.7349E-04  -0.3921E-03   0.3989E-03  -0.7938E+02       2097
  0.3342E+03   0.6163E+02  -0.3987E+02   0.5548E-04  -0.5223E-03   0.5253E-03  -0.8394E+02       2098
  0.3342E+03   0.7100E+02  -0.4375E+02   0.4561E-04  -0.6060E-03   0.6077E-03  -0.8570E+02       2099
  0.3500E+03   0.7100E+02  -0.4375E+02   0.7440E-04  -0.7142E-03   0.7181E-03  -0.8405E+02       2100
  0.3500E+03   0.8037E+02  -0.3987E+02   0.7998E-04  -0.8472E-03   0.8510E-03  -0.8461E+02       2101
  0.3500E+03   0.8425E+02  -0.3050E+02   0.9975E-04  -0.1105E-02   0.1109E-02  -0.8484E+02       2102
  0.3500E+03   0.8037E+02  -0.2113E+02   0.1286E-03  -0.1282E-02   0.1288E-02  -0.8427E+02       2103
  0.3500E+03   0.7100E+02  -0.1725E+02   0.1153E-03  -0.8082E-03   0.8164E-03  -0.8188E+02       2104
  0.3500E+03   0.6163E+02  -0.2113E+02   0.8583E-04  -0.2905E-03   0.3030E-03  -0.7354E+02       2105
  0.3500E+03   0.5775E+02  -0.3050E+02   0.8145E-04  -0.3363E-03   0.3460E-03  -0.7638E+02       2106
  0.3500E+03   0.6163E+02  -0.3987E+02   0.7724E-04  -0.4435E-03   0.4502E-03  -0.8012E+02       2107
  0.3500E+03   0.7100E+02  -0.4375E+02   0.7586E-04  -0.5142E-03   0.5198E-03  -0.8161E+02       2108
  0.3667E+03   0.7100E+02  -0.4267E+02   0.1054E-03  -0.5513E-03   0.5612E-03  -0.7917E+02       2109
  0.3667E+03   0.7961E+02  -0.3911E+02   0.1189E-03  -0.6436E-03   0.6545E-03  -0.7953E+02       2110
  0.3667E+03   0.8317E+02  -0.3050E+02   0.1530E-03  -0.8096E-03   0.8239E-03  -0.7930E+02       2111
  0.3667E+03   0.7961E+02  -0.2189E+02   0.1889E-03  -0.9091E-03   0.9285E-03  -0.7826E+02       2112
  0.3667E+03   0.7100E+02  -0.1833E+02   0.1520E-03  -0.5788E-03   0.5984E-03  -0.7528E+02       2113
  0.3667E+03   0.6239E+02  -0.2189E+02   0.9636E-04  -0.2323E-03   0.2515E-03  -0.6748E+02       2114
  0.3667E+03   0.5883E+02  -0.3050E+02   0.9100E-04  -0.2701E-03   0.2850E-03  -0.7138E+02       2115
  0.3667E+03   0.6239E+02  -0.3911E+02   0.9151E-04  -0.3509E-03   0.3626E-03  -0.7538E+02       2116
  0.3667E+03   0.7100E+02  -0.4267E+02   0.9403E-04  -0.4036E-03   0.4144E-03  -0.7689E+02       2117
  0.3833E+03   0.7100E+02  -0.4158E+02   0.1004E-03  -0.4147E-03   0.4267E-03  -0.7640E+02       2118
  0.3833E+03   0.7883E+02  -0.3833E+02   0.1128E-03  -0.4647E-03   0.4782E-03  -0.7636E+02       2119
  0.3833E+03   0.8208E+02  -0.3050E+02   0.1437E-03  -0.5443E-03   0.5629E-03  -0.7521E+02       2120
  0.3833E+03   0.7883E+02  -0.2267E+02   0.1735E-03  -0.5684E-03   0.5943E-03  -0.7302E+02       2121
  0.3833E+03   0.7100E+02  -0.1942E+02   0.1499E-03  -0.4113E-03   0.4378E-03  -0.6997E+02       2122
  0.3833E+03   0.6317E+02  -0.2267E+02   0.1073E-03  -0.2540E-03   0.2757E-03  -0.6710E+02       2123
  0.3833E+03   0.5992E+02  -0.3050E+02   0.9459E-04  -0.2604E-03   0.2770E-03  -0.7003E+02       2124