TITLE ="AERO MODEL WITH    1394 AERO GRIDS &       0 FEM GRIDS. NO. OF AERO BOXES =    1016"
VARIABLES= X, Y, Z, EXTID
ZONE T="AERO MODEL" I=    1394 J=    1016 F=FEPOINT
  8.0000E+00  0.0000E+00 -5.0000E+00              1001
  8.0000E+00  0.0000E+00 -5.0000E+00              1002
  8.0000E+00  0.0000E+00 -5.0000E+00              1003
  8.0000E+00  0.0000E+00 -5.0000E+00              1004
  8.0000E+00  0.0000E+00 -5.0000E+00              1005
  2.5000E+01  0.0000E+00 -7.9000E+00              1006
  2.5000E+01  2.0000E+00 -7.3000E+00              1007
  2.5000E+01  3.0000E+00 -4.5000E+00              1008
  2.5000E+01  2.0000E+00 -2.5000E+00              1009
  2.5000E+01  0.0000E+00 -1.8000E+00              1010
  4.2000E+01  0.0000E+00 -1.0800E+01              1011
  4.2000E+01  4.0000E+00 -9.6000E+00              1012
  4.2000E+01  6.0000E+00 -4.0000E+00              1013
  4.2000E+01  4.0000E+00  0.0000E+00              1014
  4.2000E+01  0.0000E+00  1.4000E+00              1015
  5.9000E+01  0.0000E+00 -1.3700E+01              1016
  5.9000E+01  6.0000E+00 -1.1900E+01              1017
  5.9000E+01  9.0000E+00 -3.5000E+00              1018
  5.9000E+01  6.0000E+00  2.5000E+00              1019
  5.9000E+01  0.0000E+00  4.6000E+00              1020
  7.6000E+01  0.0000E+00 -1.6600E+01              1021
  7.6000E+01  8.0000E+00 -1.4200E+01              1022
  7.6000E+01  1.2000E+01 -3.0000E+00              1023
  7.6000E+01  8.0000E+00  5.0000E+00              1024
  7.6000E+01  0.0000E+00  7.8000E+00              1025
  9.3000E+01  0.0000E+00 -1.9500E+01              1026
  9.3000E+01  1.0000E+01 -1.6500E+01              1027
  9.3000E+01  1.5000E+01 -2.5000E+00              1028
  9.3000E+01  1.0000E+01  7.5000E+00              1029
  9.3000E+01  0.0000E+00  1.1000E+01              1030
  1.1000E+02  0.0000E+00 -2.2400E+01              1031
  1.1000E+02  1.2000E+01 -1.8800E+01              1032
  1.1000E+02  1.8000E+01 -2.0000E+00              1033
  1.1000E+02  1.2000E+01  1.0000E+01              1034
  1.1000E+02  0.0000E+00  1.4200E+01              1035
  1.2700E+02  0.0000E+00 -2.5300E+01              1036
  1.2700E+02  1.4000E+01 -2.1100E+01              1037
  1.2700E+02  2.1000E+01 -1.5000E+00              1038
  1.2700E+02  1.4000E+01  1.2500E+01              1039
  1.2700E+02  0.0000E+00  1.7400E+01              1040
  1.4400E+02  0.0000E+00 -2.8200E+01              1041
  1.4400E+02  1.6000E+01 -2.3400E+01              1042
  1.4400E+02  2.4000E+01 -1.0000E+00              1043
  1.4400E+02  1.6000E+01  1.5000E+01              1044
  1.4400E+02  0.0000E+00  2.0600E+01              1045
  1.6100E+02  0.0000E+00 -3.1100E+01              1046
  1.6100E+02  1.8000E+01 -2.5700E+01              1047
  1.6100E+02  2.7000E+01 -5.0000E-01              1048
  1.6100E+02  1.8000E+01  1.7500E+01              1049
  1.6100E+02  0.0000E+00  2.3800E+01              1050
  1.7800E+02  0.0000E+00 -3.4000E+01              1051
  1.7800E+02  2.0000E+01 -2.8000E+01              1052
  1.7800E+02  3.0000E+01  0.0000E+00              1053
  1.7800E+02  2.0000E+01  2.0000E+01              1054
  1.7800E+02  0.0000E+00  2.7000E+01              1055
  1.9785E+02  0.0000E+00 -3.4000E+01              1056
  1.9785E+02  2.0000E+01 -2.8000E+01              1057
  1.9785E+02  3.0000E+01  0.0000E+00              1058
  1.9785E+02  2.0000E+01  2.0000E+01              1059
  1.9785E+02  0.0000E+00  2.7000E+01              1060
  2.1770E+02  0.0000E+00 -3.4000E+01              1061
  2.1770E+02  2.0000E+01 -2.8000E+01              1062
  2.1770E+02  3.0000E+01  0.0000E+00              1063
  2.1770E+02  2.0000E+01  2.0000E+01              1064
  2.1770E+02  0.0000E+00  2.7000E+01              1065
  2.3754E+02  0.0000E+00 -3.4000E+01              1066
  2.3754E+02  2.0000E+01 -2.8000E+01              1067
  2.3754E+02  3.0000E+01  0.0000E+00              1068
  2.3754E+02  2.0000E+01  2.0000E+01              1069
  2.3754E+02  0.0000E+00  2.7000E+01              1070
  2.5739E+02  0.0000E+00 -3.4000E+01              1071
  2.5739E+02  2.0000E+01 -2.8000E+01              1072
  2.5739E+02  3.0000E+01  0.0000E+00              1073
  2.5739E+02  2.0000E+01  2.0000E+01              1074
  2.5739E+02  0.0000E+00  2.7000E+01              1075
  2.7724E+02  0.0000E+00 -3.4000E+01              1076
  2.7724E+02  2.0000E+01 -2.8000E+01              1077
  2.7724E+02  3.0000E+01  0.0000E+00              1078
  2.7724E+02  2.0000E+01  2.0000E+01              1079
  2.7724E+02  0.0000E+00  2.7000E+01              1080
  2.9709E+02  0.0000E+00 -3.4000E+01              1081
  2.9709E+02  2.0000E+01 -2.8000E+01              1082
  2.9709E+02  3.0000E+01  0.0000E+00              1083
  2.9709E+02  2.0000E+01  2.0000E+01              1084
  2.9709E+02  0.0000E+00  2.7000E+01              1085
  3.1694E+02  0.0000E+00 -3.4000E+01              1086
  3.1694E+02  2.0000E+01 -2.8000E+01              1087
  3.1694E+02  3.0000E+01  0.0000E+00              1088
  3.1694E+02  2.0000E+01  2.0000E+01              1089
  3.1694E+02  0.0000E+00  2.7000E+01              1090
  3.3678E+02  0.0000E+00 -3.4000E+01              1091
  3.3678E+02  2.0000E+01 -2.8000E+01              1092
  3.3678E+02  3.0000E+01  0.0000E+00              1093
  3.3678E+02  2.0000E+01  2.0000E+01              1094
  3.3678E+02  0.0000E+00  2.7000E+01              1095
  3.5663E+02  0.0000E+00 -3.4000E+01              1096
  3.5663E+02  2.0000E+01 -2.8000E+01              1097
  3.5663E+02  3.0000E+01  0.0000E+00              1098
  3.5663E+02  2.0000E+01  2.0000E+01              1099
  3.5663E+02  0.0000E+00  2.7000E+01              1100
  3.7648E+02  0.0000E+00 -3.4000E+01              1101
  3.7648E+02  2.0000E+01 -2.8000E+01              1102
  3.7648E+02  3.0000E+01  0.0000E+00              1103
  3.7648E+02  2.0000E+01  2.0000E+01              1104
  3.7648E+02  0.0000E+00  2.7000E+01              1105
  3.9270E+02  0.0000E+00 -3.4000E+01              1106
  3.9270E+02  2.0000E+01 -2.8000E+01              1107
  3.9270E+02  3.0000E+01  0.0000E+00              1108
  3.9270E+02  2.0000E+01  2.0000E+01              1109
  3.9270E+02  0.0000E+00  2.7000E+01              1110
  4.0892E+02  0.0000E+00 -3.4000E+01              1111
  4.0892E+02  2.0000E+01 -2.8000E+01              1112
  4.0892E+02  3.0000E+01  0.0000E+00              1113
  4.0892E+02  2.0000E+01  2.0000E+01              1114
  4.0892E+02  0.0000E+00  2.7000E+01              1115
  4.2175E+02  0.0000E+00 -3.4000E+01              1116
  4.2175E+02  2.0000E+01 -2.8000E+01              1117
  4.2175E+02  3.0000E+01  0.0000E+00              1118
  4.2175E+02  2.0000E+01  2.0000E+01              1119
  4.2175E+02  0.0000E+00  2.7000E+01              1120
  4.3458E+02  0.0000E+00 -3.4000E+01              1121
  4.3458E+02  2.0000E+01 -2.8000E+01              1122
  4.3458E+02  3.0000E+01  0.0000E+00              1123
  4.3458E+02  2.0000E+01  2.0000E+01              1124
  4.3458E+02  0.0000E+00  2.7000E+01              1125
  4.4740E+02  0.0000E+00 -3.4000E+01              1126
  4.4740E+02  2.0000E+01 -2.8000E+01              1127
  4.4740E+02  3.0000E+01  0.0000E+00              1128
  4.4740E+02  2.0000E+01  2.0000E+01              1129
  4.4740E+02  0.0000E+00  2.7000E+01              1130
  4.6023E+02  0.0000E+00 -3.4000E+01              1131
  4.6023E+02  2.0000E+01 -2.8000E+01              1132
  4.6023E+02  3.0000E+01  0.0000E+00              1133
  4.6023E+02  2.0000E+01  2.0000E+01              1134
  4.6023E+02  0.0000E+00  2.7000E+01              1135
  4.7306E+02  0.0000E+00 -3.4000E+01              1136
  4.7306E+02  2.0000E+01 -2.8000E+01              1137
  4.7306E+02  3.0000E+01  0.0000E+00              1138
  4.7306E+02  2.0000E+01  2.0000E+01              1139
  4.7306E+02  0.0000E+00  2.7000E+01              1140
  4.8589E+02  0.0000E+00 -3.4000E+01              1141
  4.8589E+02  2.0000E+01 -2.8000E+01              1142
  4.8589E+02  3.0000E+01  0.0000E+00              1143
  4.8589E+02  2.0000E+01  2.0000E+01              1144
  4.8589E+02  0.0000E+00  2.7000E+01              1145
  4.9872E+02  0.0000E+00 -3.4000E+01              1146
  4.9872E+02  2.0000E+01 -2.8000E+01              1147
  4.9872E+02  3.0000E+01  0.0000E+00              1148
  4.9872E+02  2.0000E+01  2.0000E+01              1149
  4.9872E+02  0.0000E+00  2.7000E+01              1150
  5.1154E+02  0.0000E+00 -3.4000E+01              1151
  5.1154E+02  2.0000E+01 -2.8000E+01              1152
  5.1154E+02  3.0000E+01  0.0000E+00              1153
  5.1154E+02  2.0000E+01  2.0000E+01              1154
  5.1154E+02  0.0000E+00  2.7000E+01              1155
  5.2437E+02  0.0000E+00 -3.4000E+01              1156
  5.2437E+02  2.0000E+01 -2.8000E+01              1157
  5.2437E+02  3.0000E+01  0.0000E+00              1158
  5.2437E+02  2.0000E+01  2.0000E+01              1159
  5.2437E+02  0.0000E+00  2.7000E+01              1160
  5.3720E+02  0.0000E+00 -3.4000E+01              1161
  5.3720E+02  2.0000E+01 -2.8000E+01              1162
  5.3720E+02  3.0000E+01  0.0000E+00              1163
  5.3720E+02  2.0000E+01  2.0000E+01              1164
  5.3720E+02  0.0000E+00  2.7000E+01              1165
  1.8578E+02  7.1000E+01 -3.0500E+01              2001
  1.8578E+02  7.1000E+01 -3.0500E+01              2002
  1.8578E+02  7.1000E+01 -3.0500E+01              2003
  1.8578E+02  7.1000E+01 -3.0500E+01              2004
  1.8578E+02  7.1000E+01 -3.0500E+01              2005
  1.8578E+02  7.1000E+01 -3.0500E+01              2006
  1.8578E+02  7.1000E+01 -3.0500E+01              2007
  1.8578E+02  7.1000E+01 -3.0500E+01              2008
  1.8578E+02  7.1000E+01 -3.0500E+01              2009
  2.1000E+02  7.1000E+01 -3.8500E+01              2010
  2.1000E+02  7.6657E+01 -3.6157E+01              2011
  2.1000E+02  7.9000E+01 -3.0500E+01              2012
  2.1000E+02  7.6657E+01 -2.4843E+01              2013
  2.1000E+02  7.1000E+01 -2.2500E+01              2014
  2.1000E+02  6.5343E+01 -2.4843E+01              2015
  2.1000E+02  6.3000E+01 -3.0500E+01              2016
  2.1000E+02  6.5343E+01 -3.6157E+01              2017
  2.1000E+02  7.1000E+01 -3.8500E+01              2018
  2.2125E+02  7.1000E+01 -3.9810E+01              2019
  2.2125E+02  7.7583E+01 -3.7083E+01              2020
  2.2125E+02  8.0310E+01 -3.0500E+01              2021
  2.2125E+02  7.7583E+01 -2.3917E+01              2022
  2.2125E+02  7.1000E+01 -2.1190E+01              2023
  2.2125E+02  6.4417E+01 -2.3917E+01              2024
  2.2125E+02  6.1690E+01 -3.0500E+01              2025
  2.2125E+02  6.4417E+01 -3.7083E+01              2026
  2.2125E+02  7.1000E+01 -3.9810E+01              2027
  2.3250E+02  7.1000E+01 -4.1130E+01              2028
  2.3250E+02  7.8517E+01 -3.8017E+01              2029
  2.3250E+02  8.1630E+01 -3.0500E+01              2030
  2.3250E+02  7.8517E+01 -2.2983E+01              2031
  2.3250E+02  7.1000E+01 -1.9870E+01              2032
  2.3250E+02  6.3483E+01 -2.2983E+01              2033
  2.3250E+02  6.0370E+01 -3.0500E+01              2034
  2.3250E+02  6.3483E+01 -3.8017E+01              2035
  2.3250E+02  7.1000E+01 -4.1130E+01              2036
  2.4375E+02  7.1000E+01 -4.2440E+01              2037
  2.4375E+02  7.9443E+01 -3.8943E+01              2038
  2.4375E+02  8.2940E+01 -3.0500E+01              2039
  2.4375E+02  7.9443E+01 -2.2057E+01              2040
  2.4375E+02  7.1000E+01 -1.8560E+01              2041
  2.4375E+02  6.2557E+01 -2.2057E+01              2042
  2.4375E+02  5.9060E+01 -3.0500E+01              2043
  2.4375E+02  6.2557E+01 -3.8943E+01              2044
  2.4375E+02  7.1000E+01 -4.2440E+01              2045
  2.5500E+02  7.1000E+01 -4.3750E+01              2046
  2.5500E+02  8.0369E+01 -3.9869E+01              2047
  2.5500E+02  8.4250E+01 -3.0500E+01              2048
  2.5500E+02  8.0369E+01 -2.1131E+01              2049
  2.5500E+02  7.1000E+01 -1.7250E+01              2050
  2.5500E+02  6.1631E+01 -2.1131E+01              2051
  2.5500E+02  5.7750E+01 -3.0500E+01              2052
  2.5500E+02  6.1631E+01 -3.9869E+01              2053
  2.5500E+02  7.1000E+01 -4.3750E+01              2054
  2.7083E+02  7.1000E+01 -4.3750E+01              2055
  2.7083E+02  8.0369E+01 -3.9869E+01              2056
  2.7083E+02  8.4250E+01 -3.0500E+01              2057
  2.7083E+02  8.0369E+01 -2.1131E+01              2058
  2.7083E+02  7.1000E+01 -1.7250E+01              2059
  2.7083E+02  6.1631E+01 -2.1131E+01              2060
  2.7083E+02  5.7750E+01 -3.0500E+01              2061
  2.7083E+02  6.1631E+01 -3.9869E+01              2062
  2.7083E+02  7.1000E+01 -4.3750E+01              2063
  2.8667E+02  7.1000E+01 -4.3750E+01              2064
  2.8667E+02  8.0369E+01 -3.9869E+01              2065
  2.8667E+02  8.4250E+01 -3.0500E+01              2066
  2.8667E+02  8.0369E+01 -2.1131E+01              2067
  2.8667E+02  7.1000E+01 -1.7250E+01              2068
  2.8667E+02  6.1631E+01 -2.1131E+01              2069
  2.8667E+02  5.7750E+01 -3.0500E+01              2070
  2.8667E+02  6.1631E+01 -3.9869E+01              2071
  2.8667E+02  7.1000E+01 -4.3750E+01              2072
  3.0250E+02  7.1000E+01 -4.3750E+01              2073
  3.0250E+02  8.0369E+01 -3.9869E+01              2074
  3.0250E+02  8.4250E+01 -3.0500E+01              2075
  3.0250E+02  8.0369E+01 -2.1131E+01              2076
  3.0250E+02  7.1000E+01 -1.7250E+01              2077
  3.0250E+02  6.1631E+01 -2.1131E+01              2078
  3.0250E+02  5.7750E+01 -3.0500E+01              2079
  3.0250E+02  6.1631E+01 -3.9869E+01              2080
  3.0250E+02  7.1000E+01 -4.3750E+01              2081
  3.1833E+02  7.1000E+01 -4.3750E+01              2082
  3.1833E+02  8.0369E+01 -3.9869E+01              2083
  3.1833E+02  8.4250E+01 -3.0500E+01              2084
  3.1833E+02  8.0369E+01 -2.1131E+01              2085
  3.1833E+02  7.1000E+01 -1.7250E+01              2086
  3.1833E+02  6.1631E+01 -2.1131E+01              2087
  3.1833E+02  5.7750E+01 -3.0500E+01              2088
  3.1833E+02  6.1631E+01 -3.9869E+01              2089
  3.1833E+02  7.1000E+01 -4.3750E+01              2090
  3.3417E+02  7.1000E+01 -4.3750E+01              2091
  3.3417E+02  8.0369E+01 -3.9869E+01              2092
  3.3417E+02  8.4250E+01 -3.0500E+01              2093
  3.3417E+02  8.0369E+01 -2.1131E+01              2094
  3.3417E+02  7.1000E+01 -1.7250E+01              2095
  3.3417E+02  6.1631E+01 -2.1131E+01              2096
  3.3417E+02  5.7750E+01 -3.0500E+01              2097
  3.3417E+02  6.1631E+01 -3.9869E+01              2098
  3.3417E+02  7.1000E+01 -4.3750E+01              2099
  3.5000E+02  7.1000E+01 -4.3750E+01              2100
  3.5000E+02  8.0369E+01 -3.9869E+01              2101
  3.5000E+02  8.4250E+01 -3.0500E+01              2102
  3.5000E+02  8.0369E+01 -2.1131E+01              2103
  3.5000E+02  7.1000E+01 -1.7250E+01              2104
  3.5000E+02  6.1631E+01 -2.1131E+01              2105
  3.5000E+02  5.7750E+01 -3.0500E+01              2106
  3.5000E+02  6.1631E+01 -3.9869E+01              2107
  3.5000E+02  7.1000E+01 -4.3750E+01              2108
  3.6667E+02  7.1000E+01 -4.2670E+01              2109
  3.6667E+02  7.9605E+01 -3.9105E+01              2110
  3.6667E+02  8.3170E+01 -3.0500E+01              2111
  3.6667E+02  7.9605E+01 -2.1895E+01              2112
  3.6667E+02  7.1000E+01 -1.8330E+01              2113
  3.6667E+02  6.2395E+01 -2.1895E+01              2114
  3.6667E+02  5.8830E+01 -3.0500E+01              2115
  3.6667E+02  6.2395E+01 -3.9105E+01              2116
  3.6667E+02  7.1000E+01 -4.2670E+01              2117
  3.8333E+02  7.1000E+01 -4.1580E+01              2118
  3.8333E+02  7.8835E+01 -3.8335E+01              2119
  3.8333E+02  8.2080E+01 -3.0500E+01              2120
  3.8333E+02  7.8835E+01 -2.2665E+01              2121
  3.8333E+02  7.1000E+01 -1.9420E+01              2122
  3.8333E+02  6.3165E+01 -2.2665E+01              2123
  3.8333E+02  5.9920E+01 -3.0500E+01              2124
  3.8333E+02  6.3165E+01 -3.8335E+01              2125
  3.8333E+02  7.1000E+01 -4.1580E+01              2126
  4.0000E+02  7.1000E+01 -4.0500E+01              2127
  4.0000E+02  7.8071E+01 -3.7571E+01              2128
  4.0000E+02  8.1000E+01 -3.0500E+01              2129
  4.0000E+02  7.8071E+01 -2.3429E+01              2130
  4.0000E+02  7.1000E+01 -2.0500E+01              2131
  4.0000E+02  6.3929E+01 -2.3429E+01              2132
  4.0000E+02  6.1000E+01 -3.0500E+01              2133
  4.0000E+02  6.3929E+01 -3.7571E+01              2134
  4.0000E+02  7.1000E+01 -4.0500E+01              2135
  2.7610E+02  1.2000E+02 -2.7000E+01              3001
  2.7610E+02  1.2000E+02 -2.7000E+01              3002
  2.7610E+02  1.2000E+02 -2.7000E+01              3003
  2.7610E+02  1.2000E+02 -2.7000E+01              3004
  2.7610E+02  1.2000E+02 -2.7000E+01              3005
  2.7610E+02  1.2000E+02 -2.7000E+01              3006
  2.7610E+02  1.2000E+02 -2.7000E+01              3007
  2.7610E+02  1.2000E+02 -2.7000E+01              3008
  2.7610E+02  1.2000E+02 -2.7000E+01              3009
  2.8810E+02  1.2000E+02 -3.2000E+01              3010
  2.8810E+02  1.2354E+02 -3.0536E+01              3011
  2.8810E+02  1.2500E+02 -2.7000E+01              3012
  2.8810E+02  1.2354E+02 -2.3464E+01              3013
  2.8810E+02  1.2000E+02 -2.2000E+01              3014
  2.8810E+02  1.1646E+02 -2.3464E+01              3015
  2.8810E+02  1.1500E+02 -2.7000E+01              3016
  2.8810E+02  1.1646E+02 -3.0536E+01              3017
  2.8810E+02  1.2000E+02 -3.2000E+01              3018
  2.9700E+02  1.2000E+02 -3.3000E+01              3019
  2.9700E+02  1.2424E+02 -3.1243E+01              3020
  2.9700E+02  1.2600E+02 -2.7000E+01              3021
  2.9700E+02  1.2424E+02 -2.2757E+01              3022
  2.9700E+02  1.2000E+02 -2.1000E+01              3023
  2.9700E+02  1.1576E+02 -2.2757E+01              3024
  2.9700E+02  1.1400E+02 -2.7000E+01              3025
  2.9700E+02  1.1576E+02 -3.1243E+01              3026
  2.9700E+02  1.2000E+02 -3.3000E+01              3027
  3.0590E+02  1.2000E+02 -3.4000E+01              3028
  3.0590E+02  1.2495E+02 -3.1950E+01              3029
  3.0590E+02  1.2700E+02 -2.7000E+01              3030
  3.0590E+02  1.2495E+02 -2.2050E+01              3031
  3.0590E+02  1.2000E+02 -2.0000E+01              3032
  3.0590E+02  1.1505E+02 -2.2050E+01              3033
  3.0590E+02  1.1300E+02 -2.7000E+01              3034
  3.0590E+02  1.1505E+02 -3.1950E+01              3035
  3.0590E+02  1.2000E+02 -3.4000E+01              3036
  3.1480E+02  1.2000E+02 -3.5000E+01              3037
  3.1480E+02  1.2566E+02 -3.2657E+01              3038
  3.1480E+02  1.2800E+02 -2.7000E+01              3039
  3.1480E+02  1.2566E+02 -2.1343E+01              3040
  3.1480E+02  1.2000E+02 -1.9000E+01              3041
  3.1480E+02  1.1434E+02 -2.1343E+01              3042
  3.1480E+02  1.1200E+02 -2.7000E+01              3043
  3.1480E+02  1.1434E+02 -3.2657E+01              3044
  3.1480E+02  1.2000E+02 -3.5000E+01              3045
  3.2370E+02  1.2000E+02 -3.6000E+01              3046
  3.2370E+02  1.2636E+02 -3.3364E+01              3047
  3.2370E+02  1.2900E+02 -2.7000E+01              3048
  3.2370E+02  1.2636E+02 -2.0636E+01              3049
  3.2370E+02  1.2000E+02 -1.8000E+01              3050
  3.2370E+02  1.1364E+02 -2.0636E+01              3051
  3.2370E+02  1.1100E+02 -2.7000E+01              3052
  3.2370E+02  1.1364E+02 -3.3364E+01              3053
  3.2370E+02  1.2000E+02 -3.6000E+01              3054
  3.3127E+02  1.2000E+02 -3.6000E+01              3055
  3.3127E+02  1.2636E+02 -3.3364E+01              3056
  3.3127E+02  1.2900E+02 -2.7000E+01              3057
  3.3127E+02  1.2636E+02 -2.0636E+01              3058
  3.3127E+02  1.2000E+02 -1.8000E+01              3059
  3.3127E+02  1.1364E+02 -2.0636E+01              3060
  3.3127E+02  1.1100E+02 -2.7000E+01              3061
  3.3127E+02  1.1364E+02 -3.3364E+01              3062
  3.3127E+02  1.2000E+02 -3.6000E+01              3063
  3.3883E+02  1.2000E+02 -3.6000E+01              3064
  3.3883E+02  1.2636E+02 -3.3364E+01              3065
  3.3883E+02  1.2900E+02 -2.7000E+01              3066
  3.3883E+02  1.2636E+02 -2.0636E+01              3067
  3.3883E+02  1.2000E+02 -1.8000E+01              3068
  3.3883E+02  1.1364E+02 -2.0636E+01              3069
  3.3883E+02  1.1100E+02 -2.7000E+01              3070
  3.3883E+02  1.1364E+02 -3.3364E+01              3071
  3.3883E+02  1.2000E+02 -3.6000E+01              3072
  3.4640E+02  1.2000E+02 -3.6000E+01              3073
  3.4640E+02  1.2636E+02 -3.3364E+01              3074
  3.4640E+02  1.2900E+02 -2.7000E+01              3075
  3.4640E+02  1.2636E+02 -2.0636E+01              3076
  3.4640E+02  1.2000E+02 -1.8000E+01              3077
  3.4640E+02  1.1364E+02 -2.0636E+01              3078
  3.4640E+02  1.1100E+02 -2.7000E+01              3079
  3.4640E+02  1.1364E+02 -3.3364E+01              3080
  3.4640E+02  1.2000E+02 -3.6000E+01              3081
  3.5397E+02  1.2000E+02 -3.6000E+01              3082
  3.5397E+02  1.2636E+02 -3.3364E+01              3083
  3.5397E+02  1.2900E+02 -2.7000E+01              3084
  3.5397E+02  1.2636E+02 -2.0636E+01              3085
  3.5397E+02  1.2000E+02 -1.8000E+01              3086
  3.5397E+02  1.1364E+02 -2.0636E+01              3087
  3.5397E+02  1.1100E+02 -2.7000E+01              3088
  3.5397E+02  1.1364E+02 -3.3364E+01              3089
  3.5397E+02  1.2000E+02 -3.6000E+01              3090
  3.6153E+02  1.2000E+02 -3.6000E+01              3091
  3.6153E+02  1.2636E+02 -3.3364E+01              3092
  3.6153E+02  1.2900E+02 -2.7000E+01              3093
  3.6153E+02  1.2636E+02 -2.0636E+01              3094
  3.6153E+02  1.2000E+02 -1.8000E+01              3095
  3.6153E+02  1.1364E+02 -2.0636E+01              3096
  3.6153E+02  1.1100E+02 -2.7000E+01              3097
  3.6153E+02  1.1364E+02 -3.3364E+01              3098
  3.6153E+02  1.2000E+02 -3.6000E+01              3099
  3.6910E+02  1.2000E+02 -3.6000E+01              3100
  3.6910E+02  1.2636E+02 -3.3364E+01              3101
  3.6910E+02  1.2900E+02 -2.7000E+01              3102
  3.6910E+02  1.2636E+02 -2.0636E+01              3103
  3.6910E+02  1.2000E+02 -1.8000E+01              3104
  3.6910E+02  1.1364E+02 -2.0636E+01              3105
  3.6910E+02  1.1100E+02 -2.7000E+01              3106
  3.6910E+02  1.1364E+02 -3.3364E+01              3107
  3.6910E+02  1.2000E+02 -3.6000E+01              3108
  3.8827E+02  1.2000E+02 -3.3830E+01              3109
  3.8827E+02  1.2483E+02 -3.1830E+01              3110
  3.8827E+02  1.2683E+02 -2.7000E+01              3111
  3.8827E+02  1.2483E+02 -2.2170E+01              3112
  3.8827E+02  1.2000E+02 -2.0170E+01              3113
  3.8827E+02  1.1517E+02 -2.2170E+01              3114
  3.8827E+02  1.1317E+02 -2.7000E+01              3115
  3.8827E+02  1.1517E+02 -3.1830E+01              3116
  3.8827E+02  1.2000E+02 -3.3830E+01              3117
  4.0743E+02  1.2000E+02 -3.1670E+01              3118
  4.0743E+02  1.2330E+02 -3.0302E+01              3119
  4.0743E+02  1.2467E+02 -2.7000E+01              3120
  4.0743E+02  1.2330E+02 -2.3698E+01              3121
  4.0743E+02  1.2000E+02 -2.2330E+01              3122
  4.0743E+02  1.1670E+02 -2.3698E+01              3123
  4.0743E+02  1.1533E+02 -2.7000E+01              3124
  4.0743E+02  1.1670E+02 -3.0302E+01              3125
  4.0743E+02  1.2000E+02 -3.1670E+01              3126
  4.2660E+02  1.2000E+02 -2.9500E+01              3127
  4.2660E+02  1.2177E+02 -2.8768E+01              3128
  4.2660E+02  1.2250E+02 -2.7000E+01              3129
  4.2660E+02  1.2177E+02 -2.5232E+01              3130
  4.2660E+02  1.2000E+02 -2.4500E+01              3131
  4.2660E+02  1.1823E+02 -2.5232E+01              3132
  4.2660E+02  1.1750E+02 -2.7000E+01              3133
  4.2660E+02  1.1823E+02 -2.8768E+01              3134
  4.2660E+02  1.2000E+02 -2.9500E+01              3135
  3.0359E+02  1.8850E+02  0.0000E+00              4001
  3.0359E+02  1.8850E+02  0.0000E+00              4002
  3.0359E+02  1.8850E+02  0.0000E+00              4003
  3.0359E+02  1.8850E+02  0.0000E+00              4004
  3.0359E+02  1.8850E+02  0.0000E+00              4005
  3.0359E+02  1.8850E+02  0.0000E+00              4006
  3.0359E+02  1.8850E+02  0.0000E+00              4007
  3.0359E+02  1.8850E+02  0.0000E+00              4008
  3.0359E+02  1.8850E+02  0.0000E+00              4009
  3.0710E+02  1.8850E+02 -1.2500E+00              4010
  3.0710E+02  1.8938E+02 -8.8388E-01              4011
  3.0710E+02  1.8975E+02 -7.6540E-17              4012
  3.0710E+02  1.8938E+02  8.8388E-01              4013
  3.0710E+02  1.8850E+02  1.2500E+00              4014
  3.0710E+02  1.8762E+02  8.8388E-01              4015
  3.0710E+02  1.8725E+02  2.2962E-16              4016
  3.0710E+02  1.8762E+02 -8.8388E-01              4017
  3.0710E+02  1.8850E+02 -1.2500E+00              4018
  3.1060E+02  1.8850E+02 -2.5000E+00              4019
  3.1060E+02  1.9027E+02 -1.7678E+00              4020
  3.1060E+02  1.9100E+02 -1.5308E-16              4021
  3.1060E+02  1.9027E+02  1.7678E+00              4022
  3.1060E+02  1.8850E+02  2.5000E+00              4023
  3.1060E+02  1.8673E+02  1.7678E+00              4024
  3.1060E+02  1.8600E+02  4.5924E-16              4025
  3.1060E+02  1.8673E+02 -1.7678E+00              4026
  3.1060E+02  1.8850E+02 -2.5000E+00              4027
  3.1725E+02  1.8850E+02 -2.5000E+00              4028
  3.1725E+02  1.9027E+02 -1.7678E+00              4029
  3.1725E+02  1.9100E+02 -1.5308E-16              4030
  3.1725E+02  1.9027E+02  1.7678E+00              4031
  3.1725E+02  1.8850E+02  2.5000E+00              4032
  3.1725E+02  1.8673E+02  1.7678E+00              4033
  3.1725E+02  1.8600E+02  4.5924E-16              4034
  3.1725E+02  1.8673E+02 -1.7678E+00              4035
  3.1725E+02  1.8850E+02 -2.5000E+00              4036
  3.2389E+02  1.8850E+02 -2.5000E+00              4037
  3.2389E+02  1.9027E+02 -1.7678E+00              4038
  3.2389E+02  1.9100E+02 -1.5308E-16              4039
  3.2389E+02  1.9027E+02  1.7678E+00              4040
  3.2389E+02  1.8850E+02  2.5000E+00              4041
  3.2389E+02  1.8673E+02  1.7678E+00              4042
  3.2389E+02  1.8600E+02  4.5924E-16              4043
  3.2389E+02  1.8673E+02 -1.7678E+00              4044
  3.2389E+02  1.8850E+02 -2.5000E+00              4045
  3.3054E+02  1.8850E+02 -2.5000E+00              4046
  3.3054E+02  1.9027E+02 -1.7678E+00              4047
  3.3054E+02  1.9100E+02 -1.5308E-16              4048
  3.3054E+02  1.9027E+02  1.7678E+00              4049
  3.3054E+02  1.8850E+02  2.5000E+00              4050
  3.3054E+02  1.8673E+02  1.7678E+00              4051
  3.3054E+02  1.8600E+02  4.5924E-16              4052
  3.3054E+02  1.8673E+02 -1.7678E+00              4053
  3.3054E+02  1.8850E+02 -2.5000E+00              4054
  3.3719E+02  1.8850E+02 -2.5000E+00              4055
  3.3719E+02  1.9027E+02 -1.7678E+00              4056
  3.3719E+02  1.9100E+02 -1.5308E-16              4057
  3.3719E+02  1.9027E+02  1.7678E+00              4058
  3.3719E+02  1.8850E+02  2.5000E+00              4059
  3.3719E+02  1.8673E+02  1.7678E+00              4060
  3.3719E+02  1.8600E+02  4.5924E-16              4061
  3.3719E+02  1.8673E+02 -1.7678E+00              4062
  3.3719E+02  1.8850E+02 -2.5000E+00              4063
  3.4383E+02  1.8850E+02 -2.5000E+00              4064
  3.4383E+02  1.9027E+02 -1.7678E+00              4065
  3.4383E+02  1.9100E+02 -1.5308E-16              4066
  3.4383E+02  1.9027E+02  1.7678E+00              4067
  3.4383E+02  1.8850E+02  2.5000E+00              4068
  3.4383E+02  1.8673E+02  1.7678E+00              4069
  3.4383E+02  1.8600E+02  4.5924E-16              4070
  3.4383E+02  1.8673E+02 -1.7678E+00              4071
  3.4383E+02  1.8850E+02 -2.5000E+00              4072
  3.5048E+02  1.8850E+02 -2.5000E+00              4073
  3.5048E+02  1.9027E+02 -1.7678E+00              4074
  3.5048E+02  1.9100E+02 -1.5308E-16              4075
  3.5048E+02  1.9027E+02  1.7678E+00              4076
  3.5048E+02  1.8850E+02  2.5000E+00              4077
  3.5048E+02  1.8673E+02  1.7678E+00              4078
  3.5048E+02  1.8600E+02  4.5924E-16              4079
  3.5048E+02  1.8673E+02 -1.7678E+00              4080
  3.5048E+02  1.8850E+02 -2.5000E+00              4081
  3.5712E+02  1.8850E+02 -2.5000E+00              4082
  3.5712E+02  1.9027E+02 -1.7678E+00              4083
  3.5712E+02  1.9100E+02 -1.5308E-16              4084
  3.5712E+02  1.9027E+02  1.7678E+00              4085
  3.5712E+02  1.8850E+02  2.5000E+00              4086
  3.5712E+02  1.8673E+02  1.7678E+00              4087
  3.5712E+02  1.8600E+02  4.5924E-16              4088
  3.5712E+02  1.8673E+02 -1.7678E+00              4089
  3.5712E+02  1.8850E+02 -2.5000E+00              4090
  3.6377E+02  1.8850E+02 -2.5000E+00              4091
  3.6377E+02  1.9027E+02 -1.7678E+00              4092
  3.6377E+02  1.9100E+02 -1.5308E-16              4093
  3.6377E+02  1.9027E+02  1.7678E+00              4094
  3.6377E+02  1.8850E+02  2.5000E+00              4095
  3.6377E+02  1.8673E+02  1.7678E+00              4096
  3.6377E+02  1.8600E+02  4.5924E-16              4097