TITLE ="THE    1TH MODE WITH FREQ=    0.000 HZ ON AERO MODEL FROM FILE MODANTI1.PLT"
VARIABLES= X, Y, Z, EXTID
ZONE I=    4064 J=    1016 F=FEPOINT
  8.0000E+00 -2.4295E+01 -5.0000E+00              1002
  2.5000E+01 -2.2295E+01 -7.3000E+00              1007
  2.5000E+01 -2.4295E+01 -7.9000E+00              1006
  8.0000E+00 -2.4295E+01 -5.0000E+00              1001
  8.0000E+00 -2.4295E+01 -5.0000E+00              1003
  2.5000E+01 -2.1295E+01 -4.5000E+00              1008
  2.5000E+01 -2.2295E+01 -7.3000E+00              1007
  8.0000E+00 -2.4295E+01 -5.0000E+00              1002
  8.0000E+00 -2.4295E+01 -5.0000E+00              1004
  2.5000E+01 -2.2295E+01 -2.5000E+00              1009
  2.5000E+01 -2.1295E+01 -4.5000E+00              1008
  8.0000E+00 -2.4295E+01 -5.0000E+00              1003
  8.0000E+00 -2.4295E+01 -5.0000E+00              1005
  2.5000E+01 -2.4295E+01 -1.8000E+00              1010
  2.5000E+01 -2.2295E+01 -2.5000E+00              1009
  8.0000E+00 -2.4295E+01 -5.0000E+00              1004
  2.5000E+01 -2.2295E+01 -7.3000E+00              1007
  4.2000E+01 -2.0295E+01 -9.6000E+00              1012
  4.2000E+01 -2.4295E+01 -1.0800E+01              1011
  2.5000E+01 -2.4295E+01 -7.9000E+00              1006
  2.5000E+01 -2.1295E+01 -4.5000E+00              1008
  4.2000E+01 -1.8295E+01 -4.0000E+00              1013
  4.2000E+01 -2.0295E+01 -9.6000E+00              1012
  2.5000E+01 -2.2295E+01 -7.3000E+00              1007
  2.5000E+01 -2.2295E+01 -2.5000E+00              1009
  4.2000E+01 -2.0295E+01 -3.3650E-08              1014
  4.2000E+01 -1.8295E+01 -4.0000E+00              1013
  2.5000E+01 -2.1295E+01 -4.5000E+00              1008
  2.5000E+01 -2.4295E+01 -1.8000E+00              1010
  4.2000E+01 -2.4295E+01  1.4000E+00              1015
  4.2000E+01 -2.0295E+01 -3.3650E-08              1014
  2.5000E+01 -2.2295E+01 -2.5000E+00              1009
  4.2000E+01 -2.0295E+01 -9.6000E+00              1012
  5.9000E+01 -1.8295E+01 -1.1900E+01              1017
  5.9000E+01 -2.4295E+01 -1.3700E+01              1016
  4.2000E+01 -2.4295E+01 -1.0800E+01              1011
  4.2000E+01 -1.8295E+01 -4.0000E+00              1013
  5.9000E+01 -1.5295E+01 -3.5000E+00              1018
  5.9000E+01 -1.8295E+01 -1.1900E+01              1017
  4.2000E+01 -2.0295E+01 -9.6000E+00              1012
  4.2000E+01 -2.0295E+01 -3.3650E-08              1014
  5.9000E+01 -1.8295E+01  2.5000E+00              1019
  5.9000E+01 -1.5295E+01 -3.5000E+00              1018
  4.2000E+01 -1.8295E+01 -4.0000E+00              1013
  4.2000E+01 -2.4295E+01  1.4000E+00              1015
  5.9000E+01 -2.4295E+01  4.6000E+00              1020
  5.9000E+01 -1.8295E+01  2.5000E+00              1019
  4.2000E+01 -2.0295E+01 -3.3650E-08              1014
  5.9000E+01 -1.8295E+01 -1.1900E+01              1017
  7.6000E+01 -1.6295E+01 -1.4200E+01              1022
  7.6000E+01 -2.4295E+01 -1.6600E+01              1021
  5.9000E+01 -2.4295E+01 -1.3700E+01              1016
  5.9000E+01 -1.5295E+01 -3.5000E+00              1018
  7.6000E+01 -1.2295E+01 -3.0000E+00              1023
  7.6000E+01 -1.6295E+01 -1.4200E+01              1022
  5.9000E+01 -1.8295E+01 -1.1900E+01              1017
  5.9000E+01 -1.8295E+01  2.5000E+00              1019
  7.6000E+01 -1.6295E+01  5.0000E+00              1024
  7.6000E+01 -1.2295E+01 -3.0000E+00              1023
  5.9000E+01 -1.5295E+01 -3.5000E+00              1018
  5.9000E+01 -2.4295E+01  4.6000E+00              1020
  7.6000E+01 -2.4295E+01  7.8000E+00              1025
  7.6000E+01 -1.6295E+01  5.0000E+00              1024
  5.9000E+01 -1.8295E+01  2.5000E+00              1019
  7.6000E+01 -1.6295E+01 -1.4200E+01              1022
  9.3000E+01 -1.4295E+01 -1.6500E+01              1027
  9.3000E+01 -2.4295E+01 -1.9500E+01              1026
  7.6000E+01 -2.4295E+01 -1.6600E+01              1021
  7.6000E+01 -1.2295E+01 -3.0000E+00              1023
  9.3000E+01 -9.2955E+00 -2.5000E+00              1028
  9.3000E+01 -1.4295E+01 -1.6500E+01              1027
  7.6000E+01 -1.6295E+01 -1.4200E+01              1022
  7.6000E+01 -1.6295E+01  5.0000E+00              1024
  9.3000E+01 -1.4295E+01  7.5000E+00              1029
  9.3000E+01 -9.2955E+00 -2.5000E+00              1028
  7.6000E+01 -1.2295E+01 -3.0000E+00              1023
  7.6000E+01 -2.4295E+01  7.8000E+00              1025
  9.3000E+01 -2.4295E+01  1.1000E+01              1030
  9.3000E+01 -1.4295E+01  7.5000E+00              1029
  7.6000E+01 -1.6295E+01  5.0000E+00              1024
  9.3000E+01 -1.4295E+01 -1.6500E+01              1027
  1.1000E+02 -1.2295E+01 -1.8800E+01              1032
  1.1000E+02 -2.4295E+01 -2.2400E+01              1031
  9.3000E+01 -2.4295E+01 -1.9500E+01              1026
  9.3000E+01 -9.2955E+00 -2.5000E+00              1028
  1.1000E+02 -6.2955E+00 -2.0000E+00              1033
  1.1000E+02 -1.2295E+01 -1.8800E+01              1032
  9.3000E+01 -1.4295E+01 -1.6500E+01              1027
  9.3000E+01 -1.4295E+01  7.5000E+00              1029
  1.1000E+02 -1.2295E+01  1.0000E+01              1034
  1.1000E+02 -6.2955E+00 -2.0000E+00              1033
  9.3000E+01 -9.2955E+00 -2.5000E+00              1028
  9.3000E+01 -2.4295E+01  1.1000E+01              1030
  1.1000E+02 -2.4295E+01  1.4200E+01              1035
  1.1000E+02 -1.2295E+01  1.0000E+01              1034
  9.3000E+01 -1.4295E+01  7.5000E+00              1029
  1.1000E+02 -1.2295E+01 -1.8800E+01              1032
  1.2700E+02 -1.0295E+01 -2.1100E+01              1037
  1.2700E+02 -2.4295E+01 -2.5300E+01              1036
  1.1000E+02 -2.4295E+01 -2.2400E+01              1031
  1.1000E+02 -6.2955E+00 -2.0000E+00              1033
  1.2700E+02 -3.2955E+00 -1.5000E+00              1038
  1.2700E+02 -1.0295E+01 -2.1100E+01              1037
  1.1000E+02 -1.2295E+01 -1.8800E+01              1032
  1.1000E+02 -1.2295E+01  1.0000E+01              1034
  1.2700E+02 -1.0295E+01  1.2500E+01              1039
  1.2700E+02 -3.2955E+00 -1.5000E+00              1038
  1.1000E+02 -6.2955E+00 -2.0000E+00              1033
  1.1000E+02 -2.4295E+01  1.4200E+01              1035
  1.2700E+02 -2.4295E+01  1.7400E+01              1040
  1.2700E+02 -1.0295E+01  1.2500E+01              1039
  1.1000E+02 -1.2295E+01  1.0000E+01              1034
  1.2700E+02 -1.0295E+01 -2.1100E+01              1037
  1.4400E+02 -8.2955E+00 -2.3400E+01              1042
  1.4400E+02 -2.4295E+01 -2.8200E+01              1041
  1.2700E+02 -2.4295E+01 -2.5300E+01              1036
  1.2700E+02 -3.2955E+00 -1.5000E+00              1038
  1.4400E+02 -2.9547E-01 -1.0000E+00              1043
  1.4400E+02 -8.2955E+00 -2.3400E+01              1042
  1.2700E+02 -1.0295E+01 -2.1100E+01              1037
  1.2700E+02 -1.0295E+01  1.2500E+01              1039
  1.4400E+02 -8.2955E+00  1.5000E+01              1044
  1.4400E+02 -2.9547E-01 -1.0000E+00              1043
  1.2700E+02 -3.2955E+00 -1.5000E+00              1038
  1.2700E+02 -2.4295E+01  1.7400E+01              1040
  1.4400E+02 -2.4295E+01  2.0600E+01              1045
  1.4400E+02 -8.2955E+00  1.5000E+01              1044
  1.2700E+02 -1.0295E+01  1.2500E+01              1039
  1.4400E+02 -8.2955E+00 -2.3400E+01              1042
  1.6100E+02 -6.2955E+00 -2.5700E+01              1047
  1.6100E+02 -2.4295E+01 -3.1100E+01              1046
  1.4400E+02 -2.4295E+01 -2.8200E+01              1041
  1.4400E+02 -2.9547E-01 -1.0000E+00              1043
  1.6100E+02  2.7045E+00 -5.0000E-01              1048
  1.6100E+02 -6.2955E+00 -2.5700E+01              1047
  1.4400E+02 -8.2955E+00 -2.3400E+01              1042
  1.4400E+02 -8.2955E+00  1.5000E+01              1044
  1.6100E+02 -6.2955E+00  1.7500E+01              1049
  1.6100E+02  2.7045E+00 -5.0000E-01              1048
  1.4400E+02 -2.9547E-01 -1.0000E+00              1043
  1.4400E+02 -2.4295E+01  2.0600E+01              1045
  1.6100E+02 -2.4295E+01  2.3800E+01              1050
  1.6100E+02 -6.2955E+00  1.7500E+01              1049
  1.4400E+02 -8.2955E+00  1.5000E+01              1044
  1.6100E+02 -6.2955E+00 -2.5700E+01              1047
  1.7800E+02 -4.2955E+00 -2.8000E+01              1052
  1.7800E+02 -2.4295E+01 -3.4000E+01              1051
  1.6100E+02 -2.4295E+01 -3.1100E+01              1046
  1.6100E+02  2.7045E+00 -5.0000E-01              1048
  1.7800E+02  5.7045E+00 -2.5237E-07              1053
  1.7800E+02 -4.2955E+00 -2.8000E+01              1052
  1.6100E+02 -6.2955E+00 -2.5700E+01              1047
  1.6100E+02 -6.2955E+00  1.7500E+01              1049
  1.7800E+02 -4.2955E+00  2.0000E+01              1054
  1.7800E+02  5.7045E+00 -2.5237E-07              1053
  1.6100E+02  2.7045E+00 -5.0000E-01              1048
  1.6100E+02 -2.4295E+01  2.3800E+01              1050
  1.7800E+02 -2.4295E+01  2.7000E+01              1055
  1.7800E+02 -4.2955E+00  2.0000E+01              1054
  1.6100E+02 -6.2955E+00  1.7500E+01              1049
  1.7800E+02 -4.2955E+00 -2.8000E+01              1052
  1.9785E+02 -4.2955E+00 -2.8000E+01              1057
  1.9785E+02 -2.4295E+01 -3.4000E+01              1056
  1.7800E+02 -2.4295E+01 -3.4000E+01              1051
  1.7800E+02  5.7045E+00 -2.5237E-07              1053
  1.9785E+02  5.7045E+00 -2.5237E-07              1058
  1.9785E+02 -4.2955E+00 -2.8000E+01              1057
  1.7800E+02 -4.2955E+00 -2.8000E+01              1052
  1.7800E+02 -4.2955E+00  2.0000E+01              1054
  1.9785E+02 -4.2955E+00  2.0000E+01              1059
  1.9785E+02  5.7045E+00 -2.5237E-07              1058
  1.7800E+02  5.7045E+00 -2.5237E-07              1053
  1.7800E+02 -2.4295E+01  2.7000E+01              1055
  1.9785E+02 -2.4295E+01  2.7000E+01              1060
  1.9785E+02 -4.2955E+00  2.0000E+01              1059
  1.7800E+02 -4.2955E+00  2.0000E+01              1054
  1.9785E+02 -4.2955E+00 -2.8000E+01              1057
  2.1770E+02 -4.2955E+00 -2.8000E+01              1062
  2.1770E+02 -2.4295E+01 -3.4000E+01              1061
  1.9785E+02 -2.4295E+01 -3.4000E+01              1056
  1.9785E+02  5.7045E+00 -2.5237E-07              1058
  2.1770E+02  5.7045E+00 -2.5237E-07              1063
  2.1770E+02 -4.2955E+00 -2.8000E+01              1062
  1.9785E+02 -4.2955E+00 -2.8000E+01              1057
  1.9785E+02 -4.2955E+00  2.0000E+01              1059
  2.1770E+02 -4.2955E+00  2.0000E+01              1064
  2.1770E+02  5.7045E+00 -2.5237E-07              1063
  1.9785E+02  5.7045E+00 -2.5237E-07              1058
  1.9785E+02 -2.4295E+01  2.7000E+01              1060
  2.1770E+02 -2.4295E+01  2.7000E+01              1065
  2.1770E+02 -4.2955E+00  2.0000E+01              1064
  1.9785E+02 -4.2955E+00  2.0000E+01              1059
  2.1770E+02 -4.2955E+00 -2.8000E+01              1062
  2.3754E+02 -4.2955E+00 -2.8000E+01              1067
  2.3754E+02 -2.4295E+01 -3.4000E+01              1066
  2.1770E+02 -2.4295E+01 -3.4000E+01              1061
  2.1770E+02  5.7045E+00 -2.5237E-07              1063
  2.3754E+02  5.7045E+00 -2.5237E-07              1068
  2.3754E+02 -4.2955E+00 -2.8000E+01              1067
  2.1770E+02 -4.2955E+00 -2.8000E+01              1062
  2.1770E+02 -4.2955E+00  2.0000E+01              1064
  2.3754E+02 -4.2955E+00  2.0000E+01              1069
  2.3754E+02  5.7045E+00 -2.5237E-07              1068
  2.1770E+02  5.7045E+00 -2.5237E-07              1063
  2.1770E+02 -2.4295E+01  2.7000E+01              1065
  2.3754E+02 -2.4295E+01  2.7000E+01              1070
  2.3754E+02 -4.2955E+00  2.0000E+01              1069
  2.1770E+02 -4.2955E+00  2.0000E+01              1064
  2.3754E+02 -4.2955E+00 -2.8000E+01              1067
  2.5739E+02 -4.2955E+00 -2.8000E+01              1072
  2.5739E+02 -2.4295E+01 -3.4000E+01              1071
  2.3754E+02 -2.4295E+01 -3.4000E+01              1066
  2.3754E+02  5.7045E+00 -2.5237E-07              1068
  2.5739E+02  5.7045E+00 -2.3033E-07              1073
  2.5739E+02 -4.2955E+00 -2.8000E+01              1072
  2.3754E+02 -4.2955E+00 -2.8000E+01              1067
  2.3754E+02 -4.2955E+00  2.0000E+01              1069
  2.5739E+02 -4.2955E+00  2.0000E+01              1074
  2.5739E+02  5.7045E+00 -2.3033E-07              1073
  2.3754E+02  5.7045E+00 -2.5237E-07              1068
  2.3754E+02 -2.4295E+01  2.7000E+01              1070
  2.5739E+02 -2.4295E+01  2.7000E+01              1075
  2.5739E+02 -4.2955E+00  2.0000E+01              1074
  2.3754E+02 -4.2955E+00  2.0000E+01              1069
  2.5739E+02 -4.2955E+00 -2.8000E+01              1072
  2.7724E+02 -4.2955E+00 -2.8000E+01              1077
  2.7724E+02 -2.4295E+01 -3.4000E+01              1076
  2.5739E+02 -2.4295E+01 -3.4000E+01              1071
  2.5739E+02  5.7045E+00 -2.3033E-07              1073
  2.7724E+02  5.7045E+00 -1.4088E-07              1078
  2.7724E+02 -4.2955E+00 -2.8000E+01              1077
  2.5739E+02 -4.2955E+00 -2.8000E+01              1072
  2.5739E+02 -4.2955E+00  2.0000E+01              1074
  2.7724E+02 -4.2955E+00  2.0000E+01              1079
  2.7724E+02  5.7045E+00 -1.4088E-07              1078
  2.5739E+02  5.7045E+00 -2.3033E-07              1073
  2.5739E+02 -2.4295E+01  2.7000E+01              1075
  2.7724E+02 -2.4295E+01  2.7000E+01              1080
  2.7724E+02 -4.2955E+00  2.0000E+01              1079
  2.5739E+02 -4.2955E+00  2.0000E+01              1074
  2.7724E+02 -4.2955E+00 -2.8000E+01              1077
  2.9709E+02 -4.2955E+00 -2.8000E+01              1082
  2.9709E+02 -2.4295E+01 -3.4000E+01              1081
  2.7724E+02 -2.4295E+01 -3.4000E+01              1076
  2.7724E+02  5.7045E+00 -1.4088E-07              1078
  2.9709E+02  5.7045E+00 -5.1421E-08              1083
  2.9709E+02 -4.2955E+00 -2.8000E+01              1082
  2.7724E+02 -4.2955E+00 -2.8000E+01              1077
  2.7724E+02 -4.2955E+00  2.0000E+01              1079
  2.9709E+02 -4.2955E+00  2.0000E+01              1084
  2.9709E+02  5.7045E+00 -5.1421E-08              1083
  2.7724E+02  5.7045E+00 -1.4088E-07              1078
  2.7724E+02 -2.4295E+01  2.7000E+01              1080
  2.9709E+02 -2.4295E+01  2.7000E+01              1085
  2.9709E+02 -4.2955E+00  2.0000E+01              1084
  2.7724E+02 -4.2955E+00  2.0000E+01              1079
  2.9709E+02 -4.2955E+00 -2.8000E+01              1082
  3.1694E+02 -4.2955E+00 -2.8000E+01              1087
  3.1694E+02 -2.4295E+01 -3.4000E+01              1086
  2.9709E+02 -2.4295E+01 -3.4000E+01              1081
  2.9709E+02  5.7045E+00 -5.1421E-08              1083
  3.1694E+02  5.7045E+00  3.8382E-06              1088
  3.1694E+02 -4.2955E+00 -2.8000E+01              1087
  2.9709E+02 -4.2955E+00 -2.8000E+01              1082
  2.9709E+02 -4.2955E+00  2.0000E+01              1084
  3.1694E+02 -4.2955E+00  2.0000E+01              1089
  3.1694E+02  5.7045E+00  3.8382E-06              1088
  2.9709E+02  5.7045E+00 -5.1421E-08              1083
  2.9709E+02 -2.4295E+01  2.7000E+01              1085
  3.1694E+02 -2.4295E+01  2.7000E+01              1090
  3.1694E+02 -4.2955E+00  2.0000E+01              1089
  2.9709E+02 -4.2955E+00  2.0000E+01              1084
  3.1694E+02 -4.2955E+00 -2.8000E+01              1087
  3.3678E+02 -4.2955E+00 -2.8000E+01              1092
  3.3678E+02 -2.4295E+01 -3.4000E+01              1091
  3.1694E+02 -2.4295E+01 -3.4000E+01              1086
  3.1694E+02  5.7045E+00  3.8382E-06              1088
  3.3678E+02  5.7045E+00  1.2861E-05              1093
  3.3678E+02 -4.2955E+00 -2.8000E+01              1092
  3.1694E+02 -4.2955E+00 -2.8000E+01              1087
  3.1694E+02 -4.2955E+00  2.0000E+01              1089
  3.3678E+02 -4.2955E+00  2.0000E+01              1094
  3.3678E+02  5.7045E+00  1.2861E-05              1093
  3.1694E+02  5.7045E+00  3.8382E-06              1088
  3.1694E+02 -2.4295E+01  2.7000E+01              1090
  3.3678E+02 -2.4295E+01  2.7000E+01              1095
  3.3678E+02 -4.2955E+00  2.0000E+01              1094
  3.1694E+02 -4.2955E+00  2.0000E+01              1089
  3.3678E+02 -4.2955E+00 -2.8000E+01              1092
  3.5663E+02 -4.2954E+00 -2.8000E+01              1097
  3.5663E+02 -2.4295E+01 -3.4000E+01              1096
  3.3678E+02 -2.4295E+01 -3.4000E+01              1091
  3.3678E+02  5.7045E+00  1.2861E-05              1093
  3.5663E+02  5.7045E+00  2.1889E-05              1098
  3.5663E+02 -4.2954E+00 -2.8000E+01              1097
  3.3678E+02 -4.2955E+00 -2.8000E+01              1092
  3.3678E+02 -4.2955E+00  2.0000E+01              1094
  3.5663E+02 -4.2955E+00  2.0000E+01              1099
  3.5663E+02  5.7045E+00  2.1889E-05              1098
  3.3678E+02  5.7045E+00  1.2861E-05              1093
  3.3678E+02 -2.4295E+01  2.7000E+01              1095
  3.5663E+02 -2.4295E+01  2.7000E+01              1100
  3.5663E+02 -4.2955E+00  2.0000E+01              1099
  3.3678E+02 -4.2955E+00  2.0000E+01              1094
  3.5663E+02 -4.2954E+00 -2.8000E+01              1097
  3.7648E+02 -4.2954E+00 -2.8000E+01              1102
  3.7648E+02 -2.4295E+01 -3.4000E+01              1101
  3.5663E+02 -2.4295E+01 -3.4000E+01              1096
  3.5663E+02  5.7045E+00  2.1889E-05              1098
  3.7648E+02  5.7045E+00  3.1090E-05              1103
  3.7648E+02 -4.2954E+00 -2.8000E+01              1102
  3.5663E+02 -4.2954E+00 -2.8000E+01              1097
  3.5663E+02 -4.2955E+00  2.0000E+01              1099
  3.7648E+02 -4.2955E+00  2.0000E+01              1104
  3.7648E+02  5.7045E+00  3.1090E-05              1103
  3.5663E+02  5.7045E+00  2.1889E-05              1098
  3.5663E+02 -2.4295E+01  2.7000E+01              1100
  3.7648E+02 -2.4295E+01  2.7000E+01              1105
  3.7648E+02 -4.2955E+00  2.0000E+01              1104
  3.5663E+02 -4.2955E+00  2.0000E+01              1099
  3.7648E+02 -4.2954E+00 -2.8000E+01              1102
  3.9270E+02 -4.2954E+00 -2.8000E+01              1107
  3.9270E+02 -2.4295E+01 -3.4000E+01              1106
  3.7648E+02 -2.4295E+01 -3.4000E+01              1101
  3.7648E+02  5.7045E+00  3.1090E-05              1103
  3.9270E+02  5.7045E+00  3.8609E-05              1108
  3.9270E+02 -4.2954E+00 -2.8000E+01              1107
  3.7648E+02 -4.2954E+00 -2.8000E+01              1102
  3.7648E+02 -4.2955E+00  2.0000E+01              1104
  3.9270E+02 -4.2955E+00  2.0000E+01              1109
  3.9270E+02  5.7045E+00  3.8609E-05              1108
  3.7648E+02  5.7045E+00  3.1090E-05              1103
  3.7648E+02 -2.4295E+01  2.7000E+01              1105
  3.9270E+02 -2.4295E+01  2.7000E+01              1110
  3.9270E+02 -4.2955E+00  2.0000E+01              1109
  3.7648E+02 -4.2955E+00  2.0000E+01              1104
  3.9270E+02 -4.2954E+00 -2.8000E+01              1107
  4.0892E+02 -4.2954E+00 -2.8000E+01              1112
  4.0892E+02 -2.4295E+01 -3.4000E+01              1111
  3.9270E+02 -2.4295E+01 -3.4000E+01              1106
  3.9270E+02  5.7045E+00  3.8609E-05              1108
  4.0892E+02  5.7045E+00  4.9223E-05              1113
  4.0892E+02 -4.2954E+00 -2.8000E+01              1112
  3.9270E+02 -4.2954E+00 -2.8000E+01              1107
  3.9270E+02 -4.2955E+00  2.0000E+01              1109
  4.0892E+02 -4.2955E+00  2.0000E+01              1114
  4.0892E+02  5.7045E+00  4.9223E-05              1113
  3.9270E+02  5.7045E+00  3.8609E-05              1108
  3.9270E+02 -2.4295E+01  2.7000E+01              1110
  4.0892E+02 -2.4296E+01  2.7000E+01              1115
  4.0892E+02 -4.2955E+00  2.0000E+01              1114
  3.9270E+02 -4.2955E+00  2.0000E+01              1109
  4.0892E+02 -4.2954E+00 -2.8000E+01              1112
  4.2175E+02 -4.2954E+00 -2.8000E+01              1117
  4.2175E+02 -2.4295E+01 -3.4000E+01              1116
  4.0892E+02 -2.4295E+01 -3.4000E+01              1111
  4.0892E+02  5.7045E+00  4.9223E-05              1113
  4.2175E+02  5.7045E+00  6.1880E-05              1118
  4.2175E+02 -4.2954E+00 -2.8000E+01              1117
  4.0892E+02 -4.2954E+00 -2.8000E+01              1112
  4.0892E+02 -4.2955E+00  2.0000E+01              1114
  4.2175E+02 -4.2955E+00  2.0000E+01              1119
  4.2175E+02  5.7045E+00  6.1880E-05              1118
  4.0892E+02  5.7045E+00  4.9223E-05              1113
  4.0892E+02 -2.4296E+01  2.7000E+01              1115
  4.2175E+02 -2.4296E+01  2.7000E+01              1120
  4.2175E+02 -4.2955E+00  2.0000E+01              1119
  4.0892E+02 -4.2955E+00  2.0000E+01              1114
  4.2175E+02 -4.2954E+00 -2.8000E+01              1117
  4.3458E+02 -4.2954E+00 -2.8000E+01              1122
  4.3458E+02 -2.4295E+01 -3.4000E+01              1121
  4.2175E+02 -2.4295E+01 -3.4000E+01              1116
  4.2175E+02  5.7045E+00  6.1880E-05              1118
  4.3458E+02  5.7045E+00  7.0555E-05              1123
  4.3458E+02 -4.2954E+00 -2.8000E+01              1122
  4.2175E+02 -4.2954E+00 -2.8000E+01              1117
  4.2175E+02 -4.2955E+00  2.0000E+01              1119
  4.3458E+02 -4.2955E+00  2.0000E+01              1124
  4.3458E+02  5.7045E+00  7.0555E-05              1123
  4.2175E+02  5.7045E+00  6.1880E-05              1118
  4.2175E+02 -2.4296E+01  2.7000E+01              1120
  4.3458E+02 -2.4296E+01  2.7000E+01              1125
  4.3458E+02 -4.2955E+00  2.0000E+01              1124
  4.2175E+02 -4.2955E+00  2.0000E+01              1119
  4.3458E+02 -4.2954E+00 -2.8000E+01              1122
  4.4740E+02 -4.2954E+00 -2.8000E+01              1127
  4.4740E+02 -2.4295E+01 -3.4000E+01              1126
  4.3458E+02 -2.4295E+01 -3.4000E+01              1121
  4.3458E+02  5.7045E+00  7.0555E-05              1123
  4.4740E+02  5.7045E+00  7.6962E-05              1128
  4.4740E+02 -4.2954E+00 -2.8000E+01              1127
  4.3458E+02 -4.2954E+00 -2.8000E+01              1122
  4.3458E+02 -4.2955E+00  2.0000E+01              1124
  4.4740E+02 -4.2955E+00  2.0000E+01              1129
  4.4740E+02  5.7045E+00  7.6962E-05              1128
  4.3458E+02  5.7045E+00  7.0555E-05              1123
  4.3458E+02 -2.4296E+01  2.7000E+01              1125
  4.4740E+02 -2.4296E+01  2.7000E+01              1130
  4.4740E+02 -4.2955E+00  2.0000E+01              1129
  4.3458E+02 -4.2955E+00  2.0000E+01              1124
  4.4740E+02 -4.2954E+00 -2.8000E+01              1127
  4.6023E+02 -4.2954E+00 -2.8000E+01              1132
  4.6023E+02 -2.4295E+01 -3.4000E+01              1131
  4.4740E+02 -2.4295E+01 -3.4000E+01              1126
  4.4740E+02  5.7045E+00  7.6962E-05              1128
  4.6023E+02  5.7045E+00  8.3374E-05              1133
  4.6023E+02 -4.2954E+00 -2.8000E+01              1132
  4.4740E+02 -4.2954E+00 -2.8000E+01              1127
  4.4740E+02 -4.2955E+00  2.0000E+01              1129
  4.6023E+02 -4.2955E+00  2.0000E+01              1134
  4.6023E+02  5.7045E+00  8.3374E-05              1133
  4.4740E+02  5.7045E+00  7.6962E-05              1128
  4.4740E+02 -2.4296E+01  2.7000E+01              1130
  4.6023E+02 -2.4296E+01  2.7000E+01              1135
  4.6023E+02 -4.2955E+00  2.0000E+01              1134
  4.4740E+02 -4.2955E+00  2.0000E+01              1129
  4.6023E+02 -4.2954E+00 -2.8000E+01              1132
  4.7306E+02 -4.2954E+00 -2.8000E+01              1137
  4.7306E+02 -2.4295E+01 -3.4000E+01              1136
  4.6023E+02 -2.4295E+01 -3.4000E+01              1131
  4.6023E+02  5.7045E+00  8.3374E-05              1133
  4.7306E+02  5.7045E+00  8.9785E-05              1138
  4.7306E+02 -4.2954E+00 -2.8000E+01              1137
  4.6023E+02 -4.2954E+00 -2.8000E+01              1132
  4.6023E+02 -4.2955E+00  2.0000E+01              1134
  4.7306E+02 -4.2955E+00  2.0000E+01              1139
  4.7306E+02  5.7045E+00  8.9785E-05              1138
  4.6023E+02  5.7045E+00  8.3374E-05              1133
  4.6023E+02 -2.4296E+01  2.7000E+01              1135
  4.7306E+02 -2.4296E+01  2.7000E+01              1140
  4.7306E+02 -4.2955E+00  2.0000E+01              1139
  4.6023E+02 -4.2955E+00  2.0000E+01              1134
  4.7306E+02 -4.2954E+00 -2.8000E+01              1137
  4.8589E+02 -4.2954E+00 -2.8000E+01              1142
  4.8589E+02 -2.4295E+01 -3.4000E+01              1141
  4.7306E+02 -2.4295E+01 -3.4000E+01              1136
  4.7306E+02  5.7045E+00  8.9785E-05              1138
  4.8589E+02  5.7045E+00  9.3029E-05              1143
  4.8589E+02 -4.2954E+00 -2.8000E+01              1142
  4.7306E+02 -4.2954E+00 -2.8000E+01              1137
  4.7306E+02 -4.2955E+00  2.0000E+01              1139
  4.8589E+02 -4.2955E+00  2.0000E+01              1144
  4.8589E+02  5.7045E+00  9.3029E-05              1143
  4.7306E+02  5.7045E+00  8.9785E-05              1138
  4.7306E+02 -2.4296E+01  2.7000E+01              1140
  4.8589E+02 -2.4296E+01  2.7000E+01              1145
  4.8589E+02 -4.2955E+00  2.0000E+01              1144
  4.7306E+02 -4.2955E+00  2.0000E+01              1139
  4.8589E+02 -4.2954E+00 -2.8000E+01              1142
  4.9872E+02 -4.2954E+00 -2.8000E+01              1147
  4.9872E+02 -2.4295E+01 -3.4000E+01              1146
  4.8589E+02 -2.4295E+01 -3.4000E+01              1141
  4.8589E+02  5.7045E+00  9.3029E-05              1143
  4.9872E+02  5.7045E+00  9.3029E-05              1148
  4.9872E+02 -4.2954E+00 -2.8000E+01              1147
  4.8589E+02 -4.2954E+00 -2.8000E+01              1142
  4.8589E+02 -4.2955E+00  2.0000E+01              1144
  4.9872E+02 -4.2956E+00  2.0000E+01              1149
  4.9872E+02  5.7045E+00  9.3029E-05              1148
  4.8589E+02  5.7045E+00  9.3029E-05              1143
  4.8589E+02 -2.4296E+01  2.7000E+01              1145
  4.9872E+02 -2.4296E+01  2.7000E+01              1150
  4.9872E+02 -4.2956E+00  2.0000E+01              1149
  4.8589E+02 -4.2955E+00  2.0000E+01              1144
  4.9872E+02 -4.2954E+00 -2.8000E+01              1147
  5.1154E+02 -4.2954E+00 -2.8000E+01              1152
  5.1154E+02 -2.4295E+01 -3.4000E+01              1151
  4.9872E+02 -2.4295E+01 -3.4000E+01              1146
  4.9872E+02  5.7045E+00  9.3029E-05              1148
  5.1154E+02  5.7045E+00  9.3029E-05              1153
  5.1154E+02 -4.2954E+00 -2.8000E+01              1152
  4.9872E+02 -4.2954E+00 -2.8000E+01              1147
  4.9872E+02 -4.2956E+00  2.0000E+01              1149
  5.1154E+02 -4.2956E+00  2.0000E+01              1154
  5.1154E+02  5.7045E+00  9.3029E-05              1153
  4.9872E+02  5.7045E+00  9.3029E-05              1148
  4.9872E+02 -2.4296E+01  2.7000E+01              1150
  5.1154E+02 -2.4296E+01  2.7000E+01              1155
  5.1154E+02 -4.2956E+00  2.0000E+01              1154
  4.9872E+02 -4.2956E+00  2.0000E+01              1149
  5.1154E+02 -4.2954E+00 -2.8000E+01              1152
  5.2437E+02 -4.2955E+00 -2.8000E+01              1157
  5.2437E+02 -2.4295E+01 -3.4000E+01              1156
  5.1154E+02 -2.4295E+01 -3.4000E+01              1151
  5.1154E+02  5.7045E+00  9.3029E-05              1153
  5.2437E+02  5.7044E+00  9.3029E-05              1158
  5.2437E+02 -4.2955E+00 -2.8000E+01              1157
  5.1154E+02 -4.2954E+00 -2.8000E+01              1152
  5.1154E+02 -4.2956E+00  2.0000E+01              1154
  5.2437E+02 -4.2956E+00  2.0000E+01              1159
  5.2437E+02  5.7044E+00  9.3029E-05              1158
  5.1154E+02  5.7045E+00  9.3029E-05              1153
  5.1154E+02 -2.4296E+01  2.7000E+01              1155
  5.2437E+02 -2.4296E+01  2.7000E+01              1160
  5.2437E+02 -4.2956E+00  2.0000E+01              1159
  5.1154E+02 -4.2956E+00  2.0000E+01              1154
  5.2437E+02 -4.2955E+00 -2.8000E+01              1157
  5.3720E+02 -4.2955E+00 -2.8000E+01              1162
  5.3720E+02 -2.4295E+01 -3.4000E+01              1161
  5.2437E+02 -2.4295E+01 -3.4000E+01              1156
  5.2437E+02  5.7044E+00  9.3029E-05              1158
  5.3720E+02  5.7044E+00  9.3029E-05              1163
  5.3720E+02 -4.2955E+00 -2.8000E+01              1162
  5.2437E+02 -4.2955E+00 -2.8000E+01              1157
  5.2437E+02 -4.2956E+00  2.0000E+01              1159
  5.3720E+02 -4.2956E+00  2.0000E+01              1164
  5.3720E+02  5.7044E+00  9.3029E-05              1163
  5.2437E+02  5.7044E+00  9.3029E-05              1158
  5.2437E+02 -2.4296E+01  2.7000E+01              1160
  5.3720E+02 -2.4296E+01  2.7000E+01              1165
  5.3720E+02 -4.2956E+00  2.0000E+01              1164
  5.2437E+02 -4.2956E+00  2.0000E+01              1159
  1.8578E+02  4.6705E+01 -3.0500E+01              2002
  2.1000E+02  5.2362E+01 -3.6157E+01              2011
  2.1000E+02  4.6705E+01 -3.8500E+01              2010
  1.8578E+02  4.6705E+01 -3.0500E+01              2001
  1.8578E+02  4.6705E+01 -3.0500E+01              2003
  2.1000E+02  5.4705E+01 -3.0500E+01              2012
  2.1000E+02  5.2362E+01 -3.6157E+01              2011
  1.8578E+02  4.6705E+01 -3.0500E+01              2002
  1.8578E+02  4.6705E+01 -3.0500E+01              2004
  2.1000E+02  5.2362E+01 -2.4843E+01              2013
  2.1000E+02  5.4705E+01 -3.0500E+01              2012
  1.8578E+02  4.6705E+01 -3.0500E+01              2003
  1.8578E+02  4.6705E+01 -3.0500E+01              2005
  2.1000E+02  4.6705E+01 -2.2500E+01              2014
  2.1000E+02  5.2362E+01 -2.4843E+01              2013
  1.8578E+02  4.6705E+01 -3.0500E+01              2004
  1.8578E+02  4.6705E+01 -3.0500E+01              2006
  2.1000E+02  4.1048E+01 -2.4843E+01              2015
  2.1000E+02  4.6705E+01 -2.2500E+01              2014
  1.8578E+02  4.6705E+01 -3.0500E+01              2005
  1.8578E+02  4.6705E+01 -3.0500E+01              2007