TITLE = "Example: 2D Finite-Element Data"
VARIABLES = "X", "Y", "P", "T"
ZONE N = 8, E = 4, DATAPACKING = POINT, ZONETYPE = FEQUADRILATERAL
0.0 1.0 100.0 1.6
1.0 1.0 150.0 1.5
3.0 1.0 300.0 2.0
0.0 0.0 50.0 1.0
1.0 0.0 100.0 1.4
3.0 0.0 200.0 2.2
4.0 0.0 400.0 3.0
2.0 2.0 280.0 1.9
1 2 5 4
2 3 6 5
6 7 3 3
3 2 8 8
